loading .bash_profile
"098_098"
"/usr/local/vasp/vasp.5.4.4.pl2_CentOS6_Intel-2018.5.274/bin/vasp"
* relax calc kpoints:50, in_plane:0.98, vertical:0.98
 running on    8 total cores
 distrk:  each k-point on    8 cores,    1 groups
 distr:  one band on    8 cores,    1 groups
 using from now: INCAR     
 vasp.5.4.4.18Apr17-6-g9f103f2a35 (build Feb 12 2021 11:32:40) complex          
  
 POSCAR found :  1 types and     104 ions
 scaLAPACK will be used

 ----------------------------------------------------------------------------- 
|                                                                             |
|           W    W    AA    RRRRR   N    N  II  N    N   GGGG   !!!           |
|           W    W   A  A   R    R  NN   N  II  NN   N  G    G  !!!           |
|           W    W  A    A  R    R  N N  N  II  N N  N  G       !!!           |
|           W WW W  AAAAAA  RRRRR   N  N N  II  N  N N  G  GGG   !            |
|           WW  WW  A    A  R   R   N   NN  II  N   NN  G    G                |
|           W    W  A    A  R    R  N    N  II  N    N   GGGG   !!!           |
|                                                                             |
|      For optimal performance we recommend to set                            |
|        NCORE= 4 - approx SQRT( number of cores)                             |
|      NCORE specifies how many cores store one orbital (NPAR=cpu/NCORE).     |
|      This setting can  greatly improve the performance of VASP for DFT.     |
|      The default,   NCORE=1            might be grossly inefficient         |
|      on modern multi-core architectures or massively parallel machines.     |
|      Do your own testing !!!!                                               |
|      Unfortunately you need to use the default for GW and RPA calculations. |
|      (for HF NCORE is supported but not extensively tested yet)             |
|                                                                             |
 ----------------------------------------------------------------------------- 

 LDA part: xc-table for Pade appr. of Perdew
 generate k-points for:    5    5    3
 POSCAR, INCAR and KPOINTS ok, starting setup
 FFT: planning ...
 WAVECAR not read
 WARNING: chargedensity file is incomplete
 WARNING: random wavefunctions but no delay for mixing, default for NELMDL
 entering main loop
       N       E                     dE             d eps       ncg     rms          rms(c)
DAV:   1     0.248926730891E+03    0.24893E+03   -0.67672E+04  5016   0.645E+02
DAV:   2    -0.333470953354E+03   -0.58240E+03   -0.54815E+03  5954   0.117E+02
DAV:   3    -0.368804651170E+03   -0.35334E+02   -0.33623E+02  6088   0.241E+01
DAV:   4    -0.369560255770E+03   -0.75560E+00   -0.74410E+00  5880   0.352E+00
DAV:   5    -0.369575994227E+03   -0.15738E-01   -0.15676E-01  5880   0.449E-01    0.110E+01
DAV:   6    -0.367309626931E+03    0.22664E+01   -0.21870E+00  5672   0.245E+00    0.662E+00
DAV:   7    -0.366298686884E+03    0.10109E+01   -0.17468E+00  5680   0.185E+00    0.185E+00
DAV:   8    -0.366195723370E+03    0.10296E+00   -0.16882E-01  5728   0.690E-01    0.483E-01
DAV:   9    -0.366183238816E+03    0.12485E-01   -0.28802E-02  5656   0.279E-01    0.133E-01
DAV:  10    -0.366182890068E+03    0.34875E-03   -0.48034E-03  5816   0.104E-01    0.422E-02
DAV:  11    -0.366182856505E+03    0.33563E-04   -0.24895E-04  4280   0.276E-02
   1 F= -.36618286E+03 E0= -.36618291E+03  d E =-.366183E+03
 curvature:   0.00 expect dE= 0.000E+00 dE for cont linesearch  0.000E+00
 trial: gam= 0.00000 g(F)=  0.379E+02 g(S)=  0.000E+00 ort = 0.000E+00 (trialstep = 0.100E+01)
 search vector abs. value=  0.379E+02
 bond charge predicted
       N       E                     dE             d eps       ncg     rms          rms(c)
DAV:   1    -0.376973568922E+03   -0.10791E+02   -0.28889E+02  5179   0.299E+01    0.429E+00
DAV:   2    -0.376944913339E+03    0.28656E-01   -0.26277E+01  5552   0.886E+00    0.230E+00
DAV:   3    -0.376719739107E+03    0.22517E+00   -0.15957E+00  5823   0.205E+00    0.108E+00
DAV:   4    -0.376680220017E+03    0.39519E-01   -0.23684E-01  5680   0.750E-01    0.344E-01
DAV:   5    -0.376681170151E+03   -0.95013E-03   -0.18792E-02  5743   0.238E-01    0.144E-01
DAV:   6    -0.376681236822E+03   -0.66670E-04   -0.16505E-03  5704   0.673E-02    0.326E-02
DAV:   7    -0.376681234670E+03    0.21512E-05   -0.15611E-04  3504   0.232E-02
   2 F= -.37668123E+03 E0= -.37668135E+03  d E =-.104984E+02
 trial-energy change:  -10.498378  1 .order  -15.352116  -37.877621    7.173390
 step:   0.7068(harm=  0.8408)  dis= 0.20680  next Energy=  -377.855132 (dE=-0.117E+02)
 bond charge predicted
       N       E                     dE             d eps       ncg     rms          rms(c)
DAV:   1    -0.377796510166E+03   -0.11153E+01   -0.24718E+01  5123   0.835E+00    0.135E+00
DAV:   2    -0.377700173975E+03    0.96336E-01   -0.15664E+00  5374   0.222E+00    0.582E-01
DAV:   3    -0.377683742856E+03    0.16431E-01   -0.92514E-02  5880   0.497E-01    0.248E-01
DAV:   4    -0.377682345596E+03    0.13973E-02   -0.13759E-02  5614   0.173E-01    0.858E-02
DAV:   5    -0.377682384254E+03   -0.38658E-04   -0.10890E-03  5576   0.556E-02    0.310E-02
DAV:   6    -0.377682387550E+03   -0.32964E-05   -0.74992E-05  3024   0.163E-02
   3 F= -.37768239E+03 E0= -.37768220E+03  d E =-.114995E+02
 curvature:  -0.12 expect dE=-0.159E+00 dE for cont linesearch -0.187E-02
 ZBRENT: interpolating
 opt :   0.7349  next Energy=  -377.693042 (dE=-0.115E+02)
 bond charge predicted
       N       E                     dE             d eps       ncg     rms          rms(c)
DAV:   1    -0.377692202121E+03   -0.98179E-02   -0.23339E-01  5152   0.821E-01    0.124E-01
DAV:   2    -0.377691590373E+03    0.61175E-03   -0.14757E-02  5389   0.215E-01    0.590E-02
DAV:   3    -0.377691407177E+03    0.18320E-03   -0.76113E-04  5840   0.455E-02    0.253E-02
DAV:   4    -0.377691387533E+03    0.19644E-04   -0.13491E-04  2936   0.176E-02
   4 F= -.37769139E+03 E0= -.37769120E+03  d E =-.115085E+02
 curvature:  -0.70 expect dE=-0.934E+00 dE for cont linesearch -0.264E-03
 trial: gam= 0.03836 g(F)=  0.133E+01 g(S)=  0.000E+00 ort =-0.119E+00 (trialstep = 0.947E+00)
 search vector abs. value=  0.138E+01
 bond charge predicted
       N       E                     dE             d eps       ncg     rms          rms(c)
DAV:   1    -0.378635058086E+03   -0.94365E+00   -0.80419E+00  5234   0.508E+00    0.729E-01
DAV:   2    -0.378610725774E+03    0.24332E-01   -0.59653E-01  5455   0.139E+00    0.314E-01
DAV:   3    -0.378607851796E+03    0.28740E-02   -0.23892E-02  5839   0.267E-01    0.166E-01
DAV:   4    -0.378607092362E+03    0.75943E-03   -0.38830E-03  5616   0.923E-02    0.506E-02
DAV:   5    -0.378607102816E+03   -0.10454E-04   -0.40240E-04  5224   0.338E-02
   5 F= -.37860710E+03 E0= -.37860716E+03  d E =-.915715E+00
 trial-energy change:   -0.915715  1 .order   -0.920831   -1.258585   -0.583077
 step:   1.8437(harm=  1.7644)  dis= 0.05966  next Energy=  -378.878828 (dE=-0.119E+01)
 bond charge predicted
       N       E                     dE             d eps       ncg     rms          rms(c)
DAV:   1    -0.378897690902E+03   -0.29060E+00   -0.71647E+00  5276   0.478E+00    0.669E-01
DAV:   2    -0.378879121570E+03    0.18569E-01   -0.50883E-01  5455   0.129E+00    0.284E-01
DAV:   3    -0.378876865430E+03    0.22561E-02   -0.19871E-02  5864   0.243E-01    0.150E-01
DAV:   4    -0.378876320976E+03    0.54445E-03   -0.30602E-03  5624   0.829E-02    0.479E-02
DAV:   5    -0.378876334420E+03   -0.13444E-04   -0.33897E-04  4936   0.310E-02
   6 F= -.37887633E+03 E0= -.37887631E+03  d E =-.118495E+01
 curvature:  -0.91 expect dE=-0.172E+00 dE for cont linesearch -0.361E-04
 trial: gam= 0.15050 g(F)=  0.190E+00 g(S)=  0.000E+00 ort =-0.741E-02 (trialstep = 0.113E+01)
 search vector abs. value=  0.219E+00
 bond charge predicted
       N       E                     dE             d eps       ncg     rms          rms(c)
DAV:   1    -0.379050336394E+03   -0.17402E+00   -0.15696E+00  5089   0.224E+00    0.271E-01
DAV:   2    -0.379049564048E+03    0.77235E-03   -0.58761E-02  5728   0.460E-01    0.138E-01
DAV:   3    -0.379048661670E+03    0.90238E-03   -0.43909E-03  5576   0.103E-01    0.505E-02
DAV:   4    -0.379048685950E+03   -0.24280E-04   -0.39394E-04  4712   0.344E-02
   7 F= -.37904869E+03 E0= -.37904868E+03  d E =-.172352E+00
 trial-energy change:   -0.172352  1 .order   -0.172441   -0.212518   -0.132364
 step:   2.9863(harm=  2.9863)  dis= 0.03571  next Energy=  -379.158068 (dE=-0.282E+00)
 bond charge predicted
       N       E                     dE             d eps       ncg     rms          rms(c)
DAV:   1    -0.379168183723E+03   -0.11952E+00   -0.42865E+00  5057   0.370E+00    0.453E-01
DAV:   2    -0.379165754195E+03    0.24295E-02   -0.15989E-01  5744   0.760E-01    0.230E-01
DAV:   3    -0.379163306949E+03    0.24472E-02   -0.12307E-02  5615   0.171E-01    0.822E-02
DAV:   4    -0.379163398643E+03   -0.91695E-04   -0.11012E-03  5856   0.571E-02    0.409E-02
DAV:   5    -0.379163405478E+03   -0.68343E-05   -0.43449E-05  2981   0.120E-02
   8 F= -.37916341E+03 E0= -.37916335E+03  d E =-.287071E+00
 curvature:  -1.73 expect dE=-0.225E+00 dE for cont linesearch -0.185E-03
 trial: gam= 0.63775 g(F)=  0.130E+00 g(S)=  0.000E+00 ort = 0.483E-02 (trialstep = 0.146E+01)
 search vector abs. value=  0.225E+00
 bond charge predicted
       N       E                     dE             d eps       ncg     rms          rms(c)
DAV:   1    -0.379323447073E+03   -0.16005E+00   -0.19202E+00  5020   0.266E+00    0.270E-01
DAV:   2    -0.379324007291E+03   -0.56022E-03   -0.61029E-02  5744   0.455E-01    0.141E-01
DAV:   3    -0.379323973305E+03    0.33986E-04   -0.18564E-03  5896   0.719E-02    0.780E-02
DAV:   4    -0.379323995154E+03   -0.21849E-04   -0.23879E-04  3846   0.260E-02
   9 F= -.37932400E+03 E0= -.37932394E+03  d E =-.160590E+00
 trial-energy change:   -0.160590  1 .order   -0.160847   -0.193687   -0.128006
 step:   4.2972(harm=  4.2972)  dis= 0.06550  next Energy=  -379.448988 (dE=-0.286E+00)
 bond charge predicted
       N       E                     dE             d eps       ncg     rms          rms(c)
DAV:   1    -0.379445395812E+03   -0.12142E+00   -0.73179E+00  5017   0.518E+00    0.528E-01
DAV:   2    -0.379447416149E+03   -0.20203E-02   -0.23566E-01  5744   0.895E-01    0.274E-01
DAV:   3    -0.379447344479E+03    0.71670E-04   -0.72416E-03  5879   0.144E-01    0.155E-01
DAV:   4    -0.379447463422E+03   -0.11894E-03   -0.10444E-03  5824   0.521E-02    0.363E-02
DAV:   5    -0.379447463068E+03    0.35452E-06   -0.10494E-04  3093   0.185E-02
  10 F= -.37944746E+03 E0= -.37944743E+03  d E =-.284058E+00
 curvature:  -3.64 expect dE=-0.260E+00 dE for cont linesearch -0.392E-07
 trial: gam= 0.62885 g(F)=  0.716E-01 g(S)=  0.000E+00 ort =-0.493E-04 (trialstep = 0.203E+01)
 search vector abs. value=  0.160E+00
 bond charge predicted
       N       E                     dE             d eps       ncg     rms          rms(c)
DAV:   1    -0.379520714295E+03   -0.73251E-01   -0.35634E+00  5057   0.338E+00    0.419E-01
DAV:   2    -0.379516609903E+03    0.41044E-02   -0.17084E-01  5536   0.753E-01    0.193E-01
DAV:   3    -0.379515365708E+03    0.12442E-02   -0.79648E-03  5888   0.147E-01    0.957E-02
DAV:   4    -0.379515327247E+03    0.38461E-04   -0.11811E-03  5672   0.526E-02    0.383E-02
DAV:   5    -0.379515339561E+03   -0.12314E-04   -0.75638E-05  3023   0.156E-02
  11 F= -.37951534E+03 E0= -.37951535E+03  d E =-.678765E-01
 trial-energy change:   -0.067876  1 .order   -0.067180   -0.144892    0.010532
 step:   1.8913(harm=  1.8880)  dis= 0.02134  next Energy=  -379.515687 (dE=-0.682E-01)
 bond charge predicted
       N       E                     dE             d eps       ncg     rms          rms(c)
DAV:   1    -0.379515696645E+03   -0.36940E-03   -0.15619E-02  5115   0.225E-01    0.272E-02
DAV:   2    -0.379515683591E+03    0.13055E-04   -0.73874E-04  5568   0.495E-02
  12 F= -.37951568E+03 E0= -.37951570E+03  d E =-.682205E-01
 curvature:  -2.12 expect dE=-0.350E-01 dE for cont linesearch -0.623E-06
 trial: gam= 0.22766 g(F)=  0.165E-01 g(S)=  0.000E+00 ort = 0.217E-03 (trialstep = 0.200E+01)
 search vector abs. value=  0.250E-01
 bond charge predicted
       N       E                     dE             d eps       ncg     rms          rms(c)
DAV:   1    -0.379541338059E+03   -0.25641E-01   -0.46248E-01  5037   0.125E+00    0.132E-01
DAV:   2    -0.379541557403E+03   -0.21934E-03   -0.10184E-02  5976   0.192E-01    0.761E-02
DAV:   3    -0.379541403774E+03    0.15363E-03   -0.87902E-04  5616   0.451E-02    0.216E-02
DAV:   4    -0.379541406527E+03   -0.27523E-05   -0.62259E-05  2965   0.150E-02
  13 F= -.37954141E+03 E0= -.37954139E+03  d E =-.257229E-01
 trial-energy change:   -0.025723  1 .order   -0.025784   -0.033169   -0.018399
 step:   4.4879(harm=  4.4879)  dis= 0.01893  next Energy=  -379.552927 (dE=-0.372E-01)
 bond charge predicted
       N       E                     dE             d eps       ncg     rms          rms(c)
DAV:   1    -0.379553072372E+03   -0.11669E-01   -0.71963E-01  5035   0.155E+00    0.169E-01
DAV:   2    -0.379553438791E+03   -0.36642E-03   -0.15944E-02  5976   0.241E-01    0.976E-02
DAV:   3    -0.379553209253E+03    0.22954E-03   -0.13696E-03  5648   0.565E-02    0.275E-02
DAV:   4    -0.379553213707E+03   -0.44538E-05   -0.97829E-05  3110   0.188E-02
  14 F= -.37955321E+03 E0= -.37955311E+03  d E =-.375301E-01
 curvature:  -3.38 expect dE=-0.465E-01 dE for cont linesearch -0.715E-05
 trial: gam= 0.80551 g(F)=  0.138E-01 g(S)=  0.000E+00 ort = 0.230E-03 (trialstep = 0.205E+01)
 search vector abs. value=  0.303E-01
 bond charge predicted
       N       E                     dE             d eps       ncg     rms          rms(c)
DAV:   1    -0.379569708901E+03   -0.16500E-01   -0.58987E-01  5020   0.142E+00    0.162E-01
DAV:   2    -0.379569672881E+03    0.36019E-04   -0.14117E-02  5928   0.224E-01    0.919E-02
DAV:   3    -0.379569464186E+03    0.20870E-03   -0.12983E-03  5616   0.548E-02    0.292E-02
DAV:   4    -0.379569466383E+03   -0.21971E-05   -0.10333E-04  3052   0.191E-02
  15 F= -.37956947E+03 E0= -.37956926E+03  d E =-.162527E-01
 trial-energy change:   -0.016253  1 .order   -0.016351   -0.028673   -0.004028
 step:   2.3894(harm=  2.3894)  dis= 0.02190  next Energy=  -379.569893 (dE=-0.167E-01)
 bond charge predicted
       N       E                     dE             d eps       ncg     rms          rms(c)
DAV:   1    -0.379569810995E+03   -0.34681E-03   -0.15899E-02  5138   0.232E-01    0.269E-02
DAV:   2    -0.379569809024E+03    0.19707E-05   -0.38081E-04  5024   0.374E-02
  16 F= -.37956981E+03 E0= -.37956958E+03  d E =-.165953E-01
 curvature:  -2.60 expect dE=-0.117E-01 dE for cont linesearch -0.381E-06
 trial: gam= 0.34098 g(F)=  0.449E-02 g(S)=  0.000E+00 ort = 0.667E-04 (trialstep = 0.212E+01)
 search vector abs. value=  0.806E-02
 bond charge predicted
       N       E                     dE             d eps       ncg     rms          rms(c)
DAV:   1    -0.379575563043E+03   -0.57520E-02   -0.18206E-01  5037   0.778E-01    0.105E-01
DAV:   2    -0.379575284395E+03    0.27865E-03   -0.81564E-03  5672   0.162E-01    0.522E-02
DAV:   3    -0.379575225943E+03    0.58452E-04   -0.35834E-04  4927   0.338E-02
  17 F= -.37957523E+03 E0= -.37957496E+03  d E =-.541692E-02
 trial-energy change:   -0.005417  1 .order   -0.005515   -0.009570   -0.001461
 step:   2.5031(harm=  2.5031)  dis= 0.01281  next Energy=  -379.575456 (dE=-0.565E-02)
 bond charge predicted
       N       E                     dE             d eps       ncg     rms          rms(c)
DAV:   1    -0.379575334625E+03   -0.50230E-04   -0.55223E-03  5196   0.137E-01    0.240E-02
DAV:   2    -0.379575325427E+03    0.91979E-05   -0.23080E-04  4120   0.280E-02
  18 F= -.37957533E+03 E0= -.37957506E+03  d E =-.551640E-02
 curvature:  -2.24 expect dE=-0.325E-02 dE for cont linesearch -0.959E-06
 trial: gam= 0.35678 g(F)=  0.145E-02 g(S)=  0.000E+00 ort =-0.588E-04 (trialstep = 0.220E+01)
 search vector abs. value=  0.244E-02
 bond charge predicted
       N       E                     dE             d eps       ncg     rms          rms(c)
DAV:   1    -0.379576918013E+03   -0.15834E-02   -0.61858E-02  5054   0.451E-01    0.619E-02
DAV:   2    -0.379576859198E+03    0.58814E-04   -0.24788E-03  5736   0.920E-02    0.329E-02
DAV:   3    -0.379576832661E+03    0.26537E-04   -0.11549E-04  3303   0.188E-02
  19 F= -.37957683E+03 E0= -.37957660E+03  d E =-.150723E-02
 trial-energy change:   -0.001507  1 .order   -0.001533   -0.003144    0.000078
 step:   2.1443(harm=  2.1443)  dis= 0.00340  next Energy=  -379.576859 (dE=-0.153E-02)
 reached required accuracy - stopping structural energy minimisation
 writing wavefunctions
* fix calc kpoints:50, in_plane:0.98, vertical:0.98
 running on    8 total cores
 distrk:  each k-point on    8 cores,    1 groups
 distr:  one band on    8 cores,    1 groups
 using from now: INCAR     
 vasp.5.4.4.18Apr17-6-g9f103f2a35 (build Feb 12 2021 11:32:40) complex          
  
 POSCAR found type information on POSCAR  Al
 POSCAR found :  1 types and     104 ions
 scaLAPACK will be used

 ----------------------------------------------------------------------------- 
|                                                                             |
|           W    W    AA    RRRRR   N    N  II  N    N   GGGG   !!!           |
|           W    W   A  A   R    R  NN   N  II  NN   N  G    G  !!!           |
|           W    W  A    A  R    R  N N  N  II  N N  N  G       !!!           |
|           W WW W  AAAAAA  RRRRR   N  N N  II  N  N N  G  GGG   !            |
|           WW  WW  A    A  R   R   N   NN  II  N   NN  G    G                |
|           W    W  A    A  R    R  N    N  II  N    N   GGGG   !!!           |
|                                                                             |
|      For optimal performance we recommend to set                            |
|        NCORE= 4 - approx SQRT( number of cores)                             |
|      NCORE specifies how many cores store one orbital (NPAR=cpu/NCORE).     |
|      This setting can  greatly improve the performance of VASP for DFT.     |
|      The default,   NCORE=1            might be grossly inefficient         |
|      on modern multi-core architectures or massively parallel machines.     |
|      Do your own testing !!!!                                               |
|      Unfortunately you need to use the default for GW and RPA calculations. |
|      (for HF NCORE is supported but not extensively tested yet)             |
|                                                                             |
 ----------------------------------------------------------------------------- 

 LDA part: xc-table for Pade appr. of Perdew
 generate k-points for:    5    5    3
 found WAVECAR, reading the header
 POSCAR, INCAR and KPOINTS ok, starting setup
 FFT: planning ...
 reading WAVECAR
 the WAVECAR file was read successfully
 initial charge from wavefunction
 entering main loop
       N       E                     dE             d eps       ncg     rms          rms(c)
DAV:   1    -0.379546162039E+03   -0.37955E+03   -0.21117E-04  3356   0.345E-02    0.509E-02
DAV:   2    -0.379546053709E+03    0.10833E-03   -0.18202E-04  3418   0.220E-02    0.278E-02
DAV:   3    -0.379546039319E+03    0.14390E-04   -0.91443E-05  2730   0.134E-02
   1 F= -.37954604E+03 E0= -.37954604E+03  d E =0.000000E+00
 writing wavefunctions
"098_100"
"/usr/local/vasp/vasp.5.4.4.pl2_CentOS6_Intel-2018.5.274/bin/vasp"
* relax calc kpoints:50, in_plane:0.98, vertical:1.00
 running on    8 total cores
 distrk:  each k-point on    8 cores,    1 groups
 distr:  one band on    8 cores,    1 groups
 using from now: INCAR     
 vasp.5.4.4.18Apr17-6-g9f103f2a35 (build Feb 12 2021 11:32:40) complex          
  
 POSCAR found :  1 types and     104 ions
 scaLAPACK will be used

 ----------------------------------------------------------------------------- 
|                                                                             |
|           W    W    AA    RRRRR   N    N  II  N    N   GGGG   !!!           |
|           W    W   A  A   R    R  NN   N  II  NN   N  G    G  !!!           |
|           W    W  A    A  R    R  N N  N  II  N N  N  G       !!!           |
|           W WW W  AAAAAA  RRRRR   N  N N  II  N  N N  G  GGG   !            |
|           WW  WW  A    A  R   R   N   NN  II  N   NN  G    G                |
|           W    W  A    A  R    R  N    N  II  N    N   GGGG   !!!           |
|                                                                             |
|      For optimal performance we recommend to set                            |
|        NCORE= 4 - approx SQRT( number of cores)                             |
|      NCORE specifies how many cores store one orbital (NPAR=cpu/NCORE).     |
|      This setting can  greatly improve the performance of VASP for DFT.     |
|      The default,   NCORE=1            might be grossly inefficient         |
|      on modern multi-core architectures or massively parallel machines.     |
|      Do your own testing !!!!                                               |
|      Unfortunately you need to use the default for GW and RPA calculations. |
|      (for HF NCORE is supported but not extensively tested yet)             |
|                                                                             |
 ----------------------------------------------------------------------------- 

 LDA part: xc-table for Pade appr. of Perdew
 generate k-points for:    5    5    3
 found WAVECAR, reading the header
 WAVECAR: different cutoff or change in lattice found
 POSCAR, INCAR and KPOINTS ok, starting setup
 FFT: planning ...
 reading WAVECAR
 the WAVECAR file was read successfully
 WARNING: dimensions on CHGCAR file are different
 entering main loop
       N       E                     dE             d eps       ncg     rms          rms(c)
DAV:   1    -0.372526001188E+03   -0.37253E+03   -0.24000E+02  5073   0.287E+01    0.106E+01
DAV:   2    -0.371097403826E+03    0.14286E+01   -0.70641E+00  5832   0.489E+00    0.657E+00
DAV:   3    -0.370035959500E+03    0.10614E+01   -0.14645E+00  5631   0.177E+00    0.120E+00
DAV:   4    -0.369989752574E+03    0.46207E-01   -0.87995E-02  5808   0.505E-01    0.416E-01
DAV:   5    -0.369981085878E+03    0.86667E-02   -0.22181E-02  5792   0.219E-01    0.103E-01
DAV:   6    -0.369980951566E+03    0.13431E-03   -0.31822E-03  5680   0.887E-02    0.367E-02
DAV:   7    -0.369980972283E+03   -0.20717E-04   -0.15414E-04  3398   0.227E-02
   1 F= -.36998097E+03 E0= -.36998078E+03  d E =-.369981E+03
 curvature:   0.00 expect dE= 0.000E+00 dE for cont linesearch  0.000E+00
 trial: gam= 0.00000 g(F)=  0.293E+02 g(S)=  0.000E+00 ort = 0.000E+00 (trialstep = 0.100E+01)
 search vector abs. value=  0.293E+02
 bond charge predicted
       N       E                     dE             d eps       ncg     rms          rms(c)
DAV:   1    -0.379801445360E+03   -0.98205E+01   -0.22458E+02  5161   0.262E+01    0.371E+00
DAV:   2    -0.379780599462E+03    0.20846E-01   -0.19810E+01  5536   0.765E+00    0.199E+00
DAV:   3    -0.379608730919E+03    0.17187E+00   -0.11344E+00  5767   0.174E+00    0.967E-01
DAV:   4    -0.379576601587E+03    0.32129E-01   -0.19366E-01  5655   0.666E-01    0.298E-01
DAV:   5    -0.379577098958E+03   -0.49737E-03   -0.16427E-02  5719   0.219E-01    0.124E-01
DAV:   6    -0.379577137347E+03   -0.38389E-04   -0.11784E-03  5759   0.587E-02    0.260E-02
DAV:   7    -0.379577133638E+03    0.37094E-05   -0.12286E-04  3280   0.202E-02
   2 F= -.37957713E+03 E0= -.37957717E+03  d E =-.959616E+01
 trial-energy change:   -9.596161  1 .order  -12.804664  -29.277813    3.668485
 step:   0.7926(harm=  0.8887)  dis= 0.20420  next Energy=  -379.986180 (dE=-0.100E+02)
 bond charge predicted
       N       E                     dE             d eps       ncg     rms          rms(c)
DAV:   1    -0.379959921604E+03   -0.38278E+00   -0.96186E+00  5140   0.518E+00    0.791E-01
DAV:   2    -0.379929732157E+03    0.30189E-01   -0.59085E-01  5414   0.137E+00    0.346E-01
DAV:   3    -0.379923747095E+03    0.59851E-02   -0.31986E-02  5831   0.297E-01    0.152E-01
DAV:   4    -0.379923176723E+03    0.57037E-03   -0.54507E-03  5600   0.108E-01    0.511E-02
DAV:   5    -0.379923196905E+03   -0.20182E-04   -0.49218E-04  5383   0.374E-02
   3 F= -.37992320E+03 E0= -.37992313E+03  d E =-.994222E+01
 curvature:  -0.11 expect dE=-0.110E+00 dE for cont linesearch -0.926E-03
 ZBRENT: interpolating
 opt :   0.8170  next Energy=  -379.929147 (dE=-0.995E+01)
 bond charge predicted
       N       E                     dE             d eps       ncg     rms          rms(c)
DAV:   1    -0.379928726942E+03   -0.55502E-02   -0.13183E-01  5198   0.616E-01    0.855E-02
DAV:   2    -0.379928493839E+03    0.23310E-03   -0.79203E-03  5471   0.158E-01    0.415E-02
DAV:   3    -0.379928398819E+03    0.95021E-04   -0.38715E-04  5342   0.327E-02
   4 F= -.37992840E+03 E0= -.37992833E+03  d E =-.994743E+01
 curvature:  -0.73 expect dE=-0.725E+00 dE for cont linesearch -0.734E-04
 trial: gam= 0.03577 g(F)=  0.993E+00 g(S)=  0.000E+00 ort =-0.543E-01 (trialstep = 0.963E+00)
 search vector abs. value=  0.103E+01
 bond charge predicted
       N       E                     dE             d eps       ncg     rms          rms(c)
DAV:   1    -0.380659291168E+03   -0.73080E+00   -0.61002E+00  5238   0.441E+00    0.623E-01
DAV:   2    -0.380643224627E+03    0.16067E-01   -0.44947E-01  5470   0.120E+00    0.270E-01
DAV:   3    -0.380640928833E+03    0.22958E-02   -0.17869E-02  5847   0.233E-01    0.147E-01
DAV:   4    -0.380640343182E+03    0.58565E-03   -0.32818E-03  5624   0.829E-02    0.448E-02
DAV:   5    -0.380640350579E+03   -0.73965E-05   -0.26030E-04  4176   0.280E-02
   5 F= -.38064035E+03 E0= -.38063984E+03  d E =-.711952E+00
 trial-energy change:   -0.711952  1 .order   -0.717449   -0.954698   -0.480200
 step:   2.1138(harm=  1.9384)  dis= 0.05838  next Energy=  -380.917703 (dE=-0.989E+00)
 bond charge predicted
       N       E                     dE             d eps       ncg     rms          rms(c)
DAV:   1    -0.380926113510E+03   -0.28577E+00   -0.86065E+00  5244   0.523E+00    0.720E-01
DAV:   2    -0.380905522965E+03    0.20591E-01   -0.60591E-01  5469   0.141E+00    0.307E-01
DAV:   3    -0.380902997114E+03    0.25259E-02   -0.23816E-02  5880   0.265E-01    0.164E-01
DAV:   4    -0.380902365784E+03    0.63133E-03   -0.36510E-03  5686   0.901E-02    0.524E-02
DAV:   5    -0.380902385470E+03   -0.19687E-04   -0.37639E-04  5056   0.328E-02
   6 F= -.38090239E+03 E0= -.38090216E+03  d E =-.973987E+00
 curvature:  -0.97 expect dE=-0.146E+00 dE for cont linesearch -0.136E-02
 ZBRENT: interpolating
 opt :   2.0325  next Energy=  -380.903928 (dE=-0.976E+00)
 bond charge predicted
       N       E                     dE             d eps       ncg     rms          rms(c)
DAV:   1    -0.380904056212E+03   -0.16904E-02   -0.41723E-02  5384   0.364E-01    0.491E-02
DAV:   2    -0.380903945756E+03    0.11046E-03   -0.28746E-03  5485   0.968E-02    0.201E-02
DAV:   3    -0.380903931386E+03    0.14370E-04   -0.99961E-05  3276   0.181E-02
   7 F= -.38090393E+03 E0= -.38090369E+03  d E =-.975533E+00
 curvature:  -1.10 expect dE=-0.153E+00 dE for cont linesearch -0.437E-06
 trial: gam= 0.14518 g(F)=  0.139E+00 g(S)=  0.000E+00 ort =-0.638E-03 (trialstep = 0.118E+01)
 search vector abs. value=  0.160E+00
 bond charge predicted
       N       E                     dE             d eps       ncg     rms          rms(c)
DAV:   1    -0.381039541764E+03   -0.13560E+00   -0.12387E+00  5095   0.198E+00    0.242E-01
DAV:   2    -0.381038832214E+03    0.70955E-03   -0.48626E-02  5720   0.418E-01    0.121E-01
DAV:   3    -0.381038182764E+03    0.64945E-03   -0.33477E-03  5663   0.902E-02    0.462E-02
DAV:   4    -0.381038198604E+03   -0.15841E-04   -0.29992E-04  4216   0.300E-02
   8 F= -.38103820E+03 E0= -.38103806E+03  d E =-.134267E+00
 trial-energy change:   -0.134267  1 .order   -0.134149   -0.162980   -0.105318
 step:   3.3274(harm=  3.3274)  dis= 0.03637  next Energy=  -381.134262 (dE=-0.230E+00)
 bond charge predicted
       N       E                     dE             d eps       ncg     rms          rms(c)
DAV:   1    -0.381139673571E+03   -0.10149E+00   -0.41194E+00  5090   0.362E+00    0.438E-01
DAV:   2    -0.381138113625E+03    0.15599E-02   -0.16026E-01  5727   0.759E-01    0.223E-01
DAV:   3    -0.381135966124E+03    0.21475E-02   -0.11064E-02  5654   0.164E-01    0.846E-02
DAV:   4    -0.381136042924E+03   -0.76800E-04   -0.10649E-03  5904   0.553E-02    0.402E-02
DAV:   5    -0.381136049426E+03   -0.65022E-05   -0.49632E-05  2965   0.125E-02
   9 F= -.38113605E+03 E0= -.38113596E+03  d E =-.232118E+00
 curvature:  -1.92 expect dE=-0.173E+00 dE for cont linesearch -0.264E-05
 trial: gam= 0.62961 g(F)=  0.898E-01 g(S)=  0.000E+00 ort = 0.469E-03 (trialstep = 0.161E+01)
 search vector abs. value=  0.154E+00
 bond charge predicted
       N       E                     dE             d eps       ncg     rms          rms(c)
DAV:   1    -0.381256723872E+03   -0.12068E+00   -0.15830E+00  5041   0.241E+00    0.247E-01
DAV:   2    -0.381257151569E+03   -0.42770E-03   -0.51796E-02  5720   0.419E-01    0.129E-01
DAV:   3    -0.381257134349E+03    0.17219E-04   -0.15863E-03  5936   0.670E-02    0.730E-02
DAV:   4    -0.381257151438E+03   -0.17089E-04   -0.20743E-04  3616   0.242E-02
  10 F= -.38125715E+03 E0= -.38125697E+03  d E =-.121102E+00
 trial-energy change:   -0.121102  1 .order   -0.121338   -0.144794   -0.097883
 step:   4.9609(harm=  4.9609)  dis= 0.06153  next Energy=  -381.359509 (dE=-0.223E+00)
 bond charge predicted
       N       E                     dE             d eps       ncg     rms          rms(c)
DAV:   1    -0.381352411218E+03   -0.95277E-01   -0.69275E+00  5025   0.502E+00    0.507E-01
DAV:   2    -0.381355526536E+03   -0.31153E-02   -0.22359E-01  5728   0.872E-01    0.267E-01
DAV:   3    -0.381355535298E+03   -0.87623E-05   -0.68410E-03  5912   0.138E-01    0.149E-01
DAV:   4    -0.381355653967E+03   -0.11867E-03   -0.91269E-04  5856   0.492E-02    0.341E-02
DAV:   5    -0.381355654560E+03   -0.59281E-06   -0.96373E-05  3088   0.177E-02
  11 F= -.38135565E+03 E0= -.38135571E+03  d E =-.219605E+00
 curvature:  -4.23 expect dE=-0.216E+00 dE for cont linesearch -0.770E-04
 trial: gam= 0.62886 g(F)=  0.510E-01 g(S)=  0.000E+00 ort =-0.167E-02 (trialstep = 0.228E+01)
 search vector abs. value=  0.110E+00
 bond charge predicted
       N       E                     dE             d eps       ncg     rms          rms(c)
DAV:   1    -0.381407703574E+03   -0.52050E-01   -0.30815E+00  5064   0.313E+00    0.375E-01
DAV:   2    -0.381405400875E+03    0.23027E-02   -0.14848E-01  5600   0.703E-01    0.174E-01
DAV:   3    -0.381404439696E+03    0.96118E-03   -0.66830E-03  5856   0.133E-01    0.835E-02
DAV:   4    -0.381404425469E+03    0.14227E-04   -0.85039E-04  5720   0.456E-02
  12 F= -.38140443E+03 E0= -.38140453E+03  d E =-.487709E-01
 trial-energy change:   -0.048771  1 .order   -0.048940   -0.113887    0.016007
 step:   1.9973(harm=  1.9973)  dis= 0.01857  next Energy=  -381.405581 (dE=-0.499E-01)
 bond charge predicted
       N       E                     dE             d eps       ncg     rms          rms(c)
DAV:   1    -0.381405493308E+03   -0.10536E-02   -0.46800E-02  5149   0.387E-01    0.434E-02
DAV:   2    -0.381405440594E+03    0.52714E-04   -0.23752E-03  5567   0.886E-02    0.184E-02
DAV:   3    -0.381405421276E+03    0.19318E-04   -0.98073E-05  3135   0.169E-02
  13 F= -.38140542E+03 E0= -.38140558E+03  d E =-.497667E-01
 curvature:  -2.19 expect dE=-0.283E-01 dE for cont linesearch -0.169E-06
 trial: gam= 0.20983 g(F)=  0.129E-01 g(S)=  0.000E+00 ort = 0.920E-04 (trialstep = 0.222E+01)
 search vector abs. value=  0.178E-01
 bond charge predicted
       N       E                     dE             d eps       ncg     rms          rms(c)
DAV:   1    -0.381428100542E+03   -0.22660E-01   -0.38338E-01  5051   0.115E+00    0.118E-01
DAV:   2    -0.381428315903E+03   -0.21536E-03   -0.71637E-03  6016   0.162E-01    0.700E-02
DAV:   3    -0.381428221677E+03    0.94226E-04   -0.51089E-04  5574   0.348E-02
  14 F= -.38142822E+03 E0= -.38142827E+03  d E =-.228004E-01
 trial-energy change:   -0.022800  1 .order   -0.022924   -0.028678   -0.017169
 step:   5.5360(harm=  5.5360)  dis= 0.02814  next Energy=  -381.441150 (dE=-0.357E-01)
 bond charge predicted
       N       E                     dE             d eps       ncg     rms          rms(c)
DAV:   1    -0.381440907826E+03   -0.12592E-01   -0.85318E-01  5036   0.171E+00    0.184E-01
DAV:   2    -0.381441442962E+03   -0.53514E-03   -0.15811E-02  6024   0.240E-01    0.110E-01
DAV:   3    -0.381441256400E+03    0.18656E-03   -0.11473E-03  5655   0.522E-02    0.314E-02
DAV:   4    -0.381441265012E+03   -0.86117E-05   -0.76955E-05  3080   0.165E-02
  15 F= -.38144127E+03 E0= -.38144117E+03  d E =-.358437E-01
 curvature:  -3.81 expect dE=-0.361E-01 dE for cont linesearch -0.102E-04
 trial: gam= 0.76432 g(F)=  0.947E-02 g(S)=  0.000E+00 ort = 0.218E-03 (trialstep = 0.254E+01)
 search vector abs. value=  0.202E-01
 bond charge predicted
       N       E                     dE             d eps       ncg     rms          rms(c)
DAV:   1    -0.381455464265E+03   -0.14208E-01   -0.59446E-01  5038   0.142E+00    0.160E-01
DAV:   2    -0.381455585411E+03   -0.12115E-03   -0.15937E-02  5895   0.236E-01    0.903E-02
DAV:   3    -0.381455391901E+03    0.19351E-03   -0.12130E-03  5679   0.538E-02    0.308E-02
DAV:   4    -0.381455396160E+03   -0.42583E-05   -0.10560E-04  3056   0.191E-02
  16 F= -.38145540E+03 E0= -.38145533E+03  d E =-.141311E-01
 trial-energy change:   -0.014131  1 .order   -0.014030   -0.024468   -0.003592
 step:   2.9756(harm=  2.9756)  dis= 0.02471  next Energy=  -381.455604 (dE=-0.143E-01)
 bond charge predicted
       N       E                     dE             d eps       ncg     rms          rms(c)
DAV:   1    -0.381455638255E+03   -0.24635E-03   -0.17671E-02  5136   0.244E-01    0.272E-02
DAV:   2    -0.381455644289E+03   -0.60340E-05   -0.47237E-04  5438   0.409E-02
  17 F= -.38145564E+03 E0= -.38145558E+03  d E =-.143793E-01
 curvature:  -3.12 expect dE=-0.979E-02 dE for cont linesearch -0.413E-05
 trial: gam= 0.37337 g(F)=  0.314E-02 g(S)=  0.000E+00 ort =-0.164E-03 (trialstep = 0.263E+01)
 search vector abs. value=  0.583E-02
 bond charge predicted
       N       E                     dE             d eps       ncg     rms          rms(c)
DAV:   1    -0.381460003507E+03   -0.43653E-02   -0.20301E-01  5068   0.814E-01    0.102E-01
DAV:   2    -0.381459914575E+03    0.88932E-04   -0.83182E-03  5776   0.166E-01    0.530E-02
DAV:   3    -0.381459859746E+03    0.54829E-04   -0.32573E-04  4591   0.309E-02
  18 F= -.38145986E+03 E0= -.38145982E+03  d E =-.421546E-02
 trial-energy change:   -0.004215  1 .order   -0.004244   -0.008090   -0.000398
 step:   2.7621(harm=  2.7621)  dis= 0.00919  next Energy=  -381.459899 (dE=-0.425E-02)
 bond charge predicted
       N       E                     dE             d eps       ncg     rms          rms(c)
DAV:   1    -0.381459863504E+03    0.51071E-04   -0.50802E-04  5151   0.417E-02    0.118E-02
DAV:   2    -0.381459863484E+03    0.20551E-07   -0.20866E-05  2849   0.871E-03
  19 F= -.38145986E+03 E0= -.38145982E+03  d E =-.421920E-02
 curvature:  -2.61 expect dE=-0.227E-02 dE for cont linesearch -0.121E-06
 trial: gam= 0.25746 g(F)=  0.870E-03 g(S)=  0.000E+00 ort =-0.164E-04 (trialstep = 0.265E+01)
 search vector abs. value=  0.125E-02
 bond charge predicted
       N       E                     dE             d eps       ncg     rms          rms(c)
DAV:   1    -0.381460850901E+03   -0.98740E-03   -0.46830E-02  5124   0.388E-01    0.498E-02
DAV:   2    -0.381460828385E+03    0.22516E-04   -0.15224E-03  5871   0.726E-02    0.275E-02
DAV:   3    -0.381460801003E+03    0.27382E-04   -0.10743E-04  3043   0.166E-02
  20 F= -.38146080E+03 E0= -.38146079E+03  d E =-.937519E-03
 trial-energy change:   -0.000938  1 .order   -0.000940   -0.002297    0.000416
 step:   2.2464(harm=  2.2464)  dis= 0.00212  next Energy=  -381.460836 (dE=-0.972E-03)
 reached required accuracy - stopping structural energy minimisation
 writing wavefunctions
* fix calc kpoints:50, in_plane:0.98, vertical:1.00
 running on    8 total cores
 distrk:  each k-point on    8 cores,    1 groups
 distr:  one band on    8 cores,    1 groups
 using from now: INCAR     
 vasp.5.4.4.18Apr17-6-g9f103f2a35 (build Feb 12 2021 11:32:40) complex          
  
 POSCAR found type information on POSCAR  Al
 POSCAR found :  1 types and     104 ions
 scaLAPACK will be used

 ----------------------------------------------------------------------------- 
|                                                                             |
|           W    W    AA    RRRRR   N    N  II  N    N   GGGG   !!!           |
|           W    W   A  A   R    R  NN   N  II  NN   N  G    G  !!!           |
|           W    W  A    A  R    R  N N  N  II  N N  N  G       !!!           |
|           W WW W  AAAAAA  RRRRR   N  N N  II  N  N N  G  GGG   !            |
|           WW  WW  A    A  R   R   N   NN  II  N   NN  G    G                |
|           W    W  A    A  R    R  N    N  II  N    N   GGGG   !!!           |
|                                                                             |
|      For optimal performance we recommend to set                            |
|        NCORE= 4 - approx SQRT( number of cores)                             |
|      NCORE specifies how many cores store one orbital (NPAR=cpu/NCORE).     |
|      This setting can  greatly improve the performance of VASP for DFT.     |
|      The default,   NCORE=1            might be grossly inefficient         |
|      on modern multi-core architectures or massively parallel machines.     |
|      Do your own testing !!!!                                               |
|      Unfortunately you need to use the default for GW and RPA calculations. |
|      (for HF NCORE is supported but not extensively tested yet)             |
|                                                                             |
 ----------------------------------------------------------------------------- 

 LDA part: xc-table for Pade appr. of Perdew
 generate k-points for:    5    5    3
 found WAVECAR, reading the header
 POSCAR, INCAR and KPOINTS ok, starting setup
 FFT: planning ...
 reading WAVECAR
 the WAVECAR file was read successfully
 initial charge from wavefunction
 entering main loop
       N       E                     dE             d eps       ncg     rms          rms(c)
DAV:   1    -0.381435431302E+03   -0.38144E+03   -0.15378E-04  2879   0.312E-02    0.480E-02
DAV:   2    -0.381435374288E+03    0.57013E-04   -0.19000E-04  3561   0.218E-02
   1 F= -.38143537E+03 E0= -.38143537E+03  d E =0.000000E+00
 writing wavefunctions
"098_102"
"/usr/local/vasp/vasp.5.4.4.pl2_CentOS6_Intel-2018.5.274/bin/vasp"
* relax calc kpoints:50, in_plane:0.98, vertical:1.02
 running on    8 total cores
 distrk:  each k-point on    8 cores,    1 groups
 distr:  one band on    8 cores,    1 groups
 using from now: INCAR     
 vasp.5.4.4.18Apr17-6-g9f103f2a35 (build Feb 12 2021 11:32:40) complex          
  
 POSCAR found :  1 types and     104 ions
 scaLAPACK will be used

 ----------------------------------------------------------------------------- 
|                                                                             |
|           W    W    AA    RRRRR   N    N  II  N    N   GGGG   !!!           |
|           W    W   A  A   R    R  NN   N  II  NN   N  G    G  !!!           |
|           W    W  A    A  R    R  N N  N  II  N N  N  G       !!!           |
|           W WW W  AAAAAA  RRRRR   N  N N  II  N  N N  G  GGG   !            |
|           WW  WW  A    A  R   R   N   NN  II  N   NN  G    G                |
|           W    W  A    A  R    R  N    N  II  N    N   GGGG   !!!           |
|                                                                             |
|      For optimal performance we recommend to set                            |
|        NCORE= 4 - approx SQRT( number of cores)                             |
|      NCORE specifies how many cores store one orbital (NPAR=cpu/NCORE).     |
|      This setting can  greatly improve the performance of VASP for DFT.     |
|      The default,   NCORE=1            might be grossly inefficient         |
|      on modern multi-core architectures or massively parallel machines.     |
|      Do your own testing !!!!                                               |
|      Unfortunately you need to use the default for GW and RPA calculations. |
|      (for HF NCORE is supported but not extensively tested yet)             |
|                                                                             |
 ----------------------------------------------------------------------------- 

 LDA part: xc-table for Pade appr. of Perdew
 generate k-points for:    5    5    3
 found WAVECAR, reading the header
 WAVECAR: different cutoff or change in lattice found
 POSCAR, INCAR and KPOINTS ok, starting setup
 FFT: planning ...
 reading WAVECAR
 the WAVECAR file was read successfully
 WARNING: dimensions on CHGCAR file are different
 entering main loop
       N       E                     dE             d eps       ncg     rms          rms(c)
DAV:   1    -0.375153179894E+03   -0.37515E+03   -0.22172E+02  5091   0.273E+01    0.104E+01
DAV:   2    -0.373823644363E+03    0.13295E+01   -0.67244E+00  5839   0.474E+00    0.643E+00
DAV:   3    -0.372813579566E+03    0.10101E+01   -0.13538E+00  5718   0.170E+00    0.110E+00
DAV:   4    -0.372770687411E+03    0.42892E-01   -0.84058E-02  5735   0.489E-01    0.394E-01
DAV:   5    -0.372763423275E+03    0.72641E-02   -0.19968E-02  5908   0.201E-01    0.105E-01
DAV:   6    -0.372763260239E+03    0.16304E-03   -0.24624E-03  5647   0.773E-02    0.368E-02
DAV:   7    -0.372763286561E+03   -0.26322E-04   -0.11730E-04  3199   0.193E-02
   1 F= -.37276329E+03 E0= -.37276322E+03  d E =-.372763E+03
 curvature:   0.00 expect dE= 0.000E+00 dE for cont linesearch  0.000E+00
 trial: gam= 0.00000 g(F)=  0.228E+02 g(S)=  0.000E+00 ort = 0.000E+00 (trialstep = 0.100E+01)
 search vector abs. value=  0.228E+02
 bond charge predicted
       N       E                     dE             d eps       ncg     rms          rms(c)
DAV:   1    -0.381431733076E+03   -0.86685E+01   -0.17439E+02  5169   0.230E+01    0.314E+00
DAV:   2    -0.381503837417E+03   -0.72104E-01   -0.14866E+01  5570   0.658E+00    0.171E+00
DAV:   3    -0.381372190053E+03    0.13165E+00   -0.79951E-01  5700   0.146E+00    0.828E-01
DAV:   4    -0.381349046453E+03    0.23144E-01   -0.15081E-01  5670   0.578E-01    0.254E-01
DAV:   5    -0.381349201442E+03   -0.15499E-03   -0.14976E-02  5576   0.204E-01    0.116E-01
DAV:   6    -0.381349204136E+03   -0.26931E-05   -0.90268E-04  5877   0.531E-02
   2 F= -.38134920E+03 E0= -.38134912E+03  d E =-.858592E+01
 trial-energy change:   -8.585918  1 .order  -10.689523  -22.776522    1.397476
 step:   0.8918(harm=  0.9422)  dis= 0.20277  next Energy=  -381.427459 (dE=-0.866E+01)
 bond charge predicted
       N       E                     dE             d eps       ncg     rms          rms(c)
DAV:   1    -0.381422812557E+03   -0.73611E-01   -0.20049E+00  5205   0.237E+00    0.344E-01
DAV:   2    -0.381417860020E+03    0.49525E-02   -0.12110E-01  5462   0.619E-01    0.158E-01
DAV:   3    -0.381416535900E+03    0.13241E-02   -0.64583E-03  5790   0.131E-01    0.676E-02
DAV:   4    -0.381416422904E+03    0.11300E-03   -0.10582E-03  5632   0.482E-02    0.225E-02
DAV:   5    -0.381416427894E+03   -0.49908E-05   -0.84694E-05  2997   0.162E-02
   3 F= -.38141643E+03 E0= -.38141636E+03  d E =-.865314E+01
 curvature:  -0.11 expect dE=-0.814E-01 dE for cont linesearch -0.201E-03
 ZBRENT: interpolating
 opt :   0.9054  next Energy=  -381.417792 (dE=-0.865E+01)
 bond charge predicted
       N       E                     dE             d eps       ncg     rms          rms(c)
DAV:   1    -0.381417763963E+03   -0.13411E-02   -0.31565E-02  5225   0.299E-01    0.410E-02
DAV:   2    -0.381417709135E+03    0.54828E-04   -0.18917E-03  5494   0.773E-02    0.194E-02
DAV:   3    -0.381417687951E+03    0.21185E-04   -0.85162E-05  3062   0.159E-02
   4 F= -.38141769E+03 E0= -.38141762E+03  d E =-.865440E+01
 curvature:  -0.77 expect dE=-0.561E+00 dE for cont linesearch -0.269E-05
 trial: gam= 0.03236 g(F)=  0.728E+00 g(S)=  0.000E+00 ort =-0.892E-02 (trialstep = 0.981E+00)
 search vector abs. value=  0.751E+00
 bond charge predicted
       N       E                     dE             d eps       ncg     rms          rms(c)
DAV:   1    -0.381976481625E+03   -0.55877E+00   -0.45238E+00  5252   0.379E+00    0.505E-01
DAV:   2    -0.381969324957E+03    0.71567E-02   -0.30758E-01  5510   0.100E+00    0.229E-01
DAV:   3    -0.381967703368E+03    0.16216E-02   -0.11862E-02  5886   0.185E-01    0.120E-01
DAV:   4    -0.381967337114E+03    0.36625E-03   -0.19749E-03  5630   0.657E-02    0.378E-02
DAV:   5    -0.381967343836E+03   -0.67222E-05   -0.16596E-04  3447   0.227E-02
   5 F= -.38196734E+03 E0= -.38196734E+03  d E =-.549656E+00
 trial-energy change:   -0.549656  1 .order   -0.550678   -0.714128   -0.387228
 step:   2.1432(harm=  2.1432)  dis= 0.05080  next Energy=  -382.197710 (dE=-0.780E+00)
 bond charge predicted
       N       E                     dE             d eps       ncg     rms          rms(c)
DAV:   1    -0.382221460968E+03   -0.25412E+00   -0.62967E+00  5255   0.447E+00    0.588E-01
DAV:   2    -0.382211610665E+03    0.98503E-02   -0.42107E-01  5500   0.117E+00    0.261E-01
DAV:   3    -0.382209626621E+03    0.19840E-02   -0.16285E-02  5918   0.216E-01    0.137E-01
DAV:   4    -0.382209202295E+03    0.42433E-03   -0.24930E-03  5663   0.747E-02    0.441E-02
DAV:   5    -0.382209216421E+03   -0.14126E-04   -0.24729E-04  4078   0.271E-02
   6 F= -.38220922E+03 E0= -.38220915E+03  d E =-.791528E+00
 curvature:  -1.11 expect dE=-0.107E+00 dE for cont linesearch -0.104E-02
 ZBRENT: extrapolating
 opt :   2.2272  next Energy=  -382.210333 (dE=-0.793E+00)
 bond charge predicted
       N       E                     dE             d eps       ncg     rms          rms(c)
DAV:   1    -0.382210496843E+03   -0.12945E-02   -0.33443E-02  5428   0.325E-01    0.435E-02
DAV:   2    -0.382210450442E+03    0.46401E-04   -0.21626E-03  5510   0.847E-02    0.196E-02
DAV:   3    -0.382210439314E+03    0.11128E-04   -0.75310E-05  3221   0.154E-02
   7 F= -.38221044E+03 E0= -.38221037E+03  d E =-.792751E+00
 curvature:  -1.19 expect dE=-0.122E+00 dE for cont linesearch -0.976E-05
 trial: gam= 0.14411 g(F)=  0.103E+00 g(S)=  0.000E+00 ort = 0.249E-02 (trialstep = 0.123E+01)
 search vector abs. value=  0.119E+00
 bond charge predicted
       N       E                     dE             d eps       ncg     rms          rms(c)
DAV:   1    -0.382315370087E+03   -0.10492E+00   -0.97852E-01  5073   0.176E+00    0.204E-01
DAV:   2    -0.382315443690E+03   -0.73603E-04   -0.38482E-02  5712   0.370E-01    0.104E-01
DAV:   3    -0.382315026914E+03    0.41678E-03   -0.22764E-03  5734   0.752E-02    0.420E-02
DAV:   4    -0.382315036934E+03   -0.10020E-04   -0.21596E-04  3653   0.255E-02
   8 F= -.38231504E+03 E0= -.38231498E+03  d E =-.104598E+00
 trial-energy change:   -0.104598  1 .order   -0.104907   -0.126550   -0.083263
 step:   3.5968(harm=  3.5968)  dis= 0.03859  next Energy=  -382.395425 (dE=-0.185E+00)
 bond charge predicted
       N       E                     dE             d eps       ncg     rms          rms(c)
DAV:   1    -0.382397557636E+03   -0.82531E-01   -0.36143E+00  5032   0.339E+00    0.392E-01
DAV:   2    -0.382397826229E+03   -0.26859E-03   -0.14250E-01  5728   0.713E-01    0.200E-01
DAV:   3    -0.382396342954E+03    0.14833E-02   -0.81937E-03  5767   0.144E-01    0.837E-02
DAV:   4    -0.382396385837E+03   -0.42883E-04   -0.89800E-04  5832   0.495E-02
   9 F= -.38239639E+03 E0= -.38239635E+03  d E =-.185947E+00
 curvature:  -2.08 expect dE=-0.135E+00 dE for cont linesearch -0.488E-04
 trial: gam= 0.60235 g(F)=  0.648E-01 g(S)=  0.000E+00 ort = 0.167E-02 (trialstep = 0.170E+01)
 search vector abs. value=  0.110E+00
 bond charge predicted
       N       E                     dE             d eps       ncg     rms          rms(c)
DAV:   1    -0.382488415505E+03   -0.92073E-01   -0.12651E+00  5024   0.215E+00    0.218E-01
DAV:   2    -0.382489353759E+03   -0.93825E-03   -0.39822E-02  5744   0.368E-01    0.118E-01
DAV:   3    -0.382489339105E+03    0.14654E-04   -0.12224E-03  5880   0.578E-02    0.633E-02
DAV:   4    -0.382489358789E+03   -0.19684E-04   -0.14855E-04  3336   0.210E-02
  10 F= -.38248936E+03 E0= -.38248934E+03  d E =-.929730E-01
 trial-energy change:   -0.092973  1 .order   -0.092780   -0.112136   -0.073424
 step:   4.9347(harm=  4.9347)  dis= 0.04958  next Energy=  -382.558795 (dE=-0.162E+00)
 bond charge predicted
       N       E                     dE             d eps       ncg     rms          rms(c)
DAV:   1    -0.382555629759E+03   -0.66291E-01   -0.45760E+00  5024   0.408E+00    0.400E-01
DAV:   2    -0.382559418939E+03   -0.37892E-02   -0.14446E-01  5784   0.702E-01    0.215E-01
DAV:   3    -0.382559394705E+03    0.24234E-04   -0.43142E-03  5864   0.109E-01    0.116E-01
DAV:   4    -0.382559478369E+03   -0.83665E-04   -0.57430E-04  5792   0.392E-02
  11 F= -.38255948E+03 E0= -.38255940E+03  d E =-.163093E+00
 curvature:  -4.12 expect dE=-0.148E+00 dE for cont linesearch -0.270E-04
 trial: gam= 0.57836 g(F)=  0.359E-01 g(S)=  0.000E+00 ort = 0.848E-03 (trialstep = 0.235E+01)
 search vector abs. value=  0.736E-01
 bond charge predicted
       N       E                     dE             d eps       ncg     rms          rms(c)
DAV:   1    -0.382606875420E+03   -0.47481E-01   -0.22026E+00  5058   0.262E+00    0.325E-01
DAV:   2    -0.382604528334E+03    0.23471E-02   -0.10791E-01  5606   0.598E-01    0.149E-01
DAV:   3    -0.382603816524E+03    0.71181E-03   -0.49983E-03  5846   0.114E-01    0.718E-02
DAV:   4    -0.382603810937E+03    0.55865E-05   -0.63575E-04  5664   0.393E-02
  12 F= -.38260381E+03 E0= -.38260371E+03  d E =-.443326E-01
 trial-energy change:   -0.044333  1 .order   -0.044477   -0.085458   -0.003496
 step:   2.4501(harm=  2.4501)  dis= 0.01863  next Energy=  -382.604030 (dE=-0.446E-01)
 bond charge predicted
       N       E                     dE             d eps       ncg     rms          rms(c)
DAV:   1    -0.382603905980E+03   -0.89456E-04   -0.41263E-03  5259   0.113E-01    0.189E-02
DAV:   2    -0.382603904697E+03    0.12837E-05   -0.17274E-04  3648   0.250E-02
  13 F= -.38260390E+03 E0= -.38260382E+03  d E =-.444263E-01
 curvature:  -2.48 expect dE=-0.294E-01 dE for cont linesearch -0.322E-06
 trial: gam= 0.34057 g(F)=  0.119E-01 g(S)=  0.000E+00 ort = 0.978E-04 (trialstep = 0.237E+01)
 search vector abs. value=  0.205E-01
 bond charge predicted
       N       E                     dE             d eps       ncg     rms          rms(c)
DAV:   1    -0.382625853278E+03   -0.21947E-01   -0.48873E-01  5022   0.129E+00    0.133E-01
DAV:   2    -0.382626270764E+03   -0.41749E-03   -0.98137E-03  6032   0.187E-01    0.790E-02
DAV:   3    -0.382626186229E+03    0.84535E-04   -0.63326E-04  5670   0.391E-02
  14 F= -.38262619E+03 E0= -.38262617E+03  d E =-.222815E-01
 trial-energy change:   -0.022282  1 .order   -0.022366   -0.028177   -0.016555
 step:   5.7453(harm=  5.7453)  dis= 0.02750  next Energy=  -382.638060 (dE=-0.342E-01)
 bond charge predicted
       N       E                     dE             d eps       ncg     rms          rms(c)
DAV:   1    -0.382637960532E+03   -0.11690E-01   -0.99229E-01  5020   0.184E+00    0.189E-01
DAV:   2    -0.382638922356E+03   -0.96182E-03   -0.19725E-02  6032   0.265E-01    0.113E-01
DAV:   3    -0.382638778130E+03    0.14423E-03   -0.12051E-03  5670   0.544E-02    0.338E-02
DAV:   4    -0.382638790022E+03   -0.11892E-04   -0.89409E-05  3160   0.177E-02
  15 F= -.38263879E+03 E0= -.38263884E+03  d E =-.348853E-01
 curvature:  -4.94 expect dE=-0.395E-01 dE for cont linesearch -0.746E-05
 trial: gam= 0.63981 g(F)=  0.799E-02 g(S)=  0.000E+00 ort = 0.176E-03 (trialstep = 0.304E+01)
 search vector abs. value=  0.166E-01
 bond charge predicted
       N       E                     dE             d eps       ncg     rms          rms(c)
DAV:   1    -0.382650287581E+03   -0.11509E-01   -0.69896E-01  5033   0.154E+00    0.172E-01
DAV:   2    -0.382650351899E+03   -0.64318E-04   -0.20075E-02  5864   0.265E-01    0.952E-02
DAV:   3    -0.382650137329E+03    0.21457E-03   -0.13381E-03  5712   0.574E-02    0.378E-02
DAV:   4    -0.382650147628E+03   -0.10299E-04   -0.10913E-04  3088   0.191E-02
  16 F= -.38265015E+03 E0= -.38265021E+03  d E =-.113576E-01
 trial-energy change:   -0.011358  1 .order   -0.011338   -0.024685    0.002010
 step:   2.8157(harm=  2.8157)  dis= 0.01938  next Energy=  -382.650203 (dE=-0.114E-01)
 bond charge predicted
       N       E                     dE             d eps       ncg     rms          rms(c)
DAV:   1    -0.382650214044E+03   -0.76715E-04   -0.39212E-03  5181   0.116E-01    0.123E-02
DAV:   2    -0.382650212042E+03    0.20019E-05   -0.97291E-05  2972   0.193E-02
  17 F= -.38265021E+03 E0= -.38265028E+03  d E =-.114220E-01
 curvature:  -2.88 expect dE=-0.767E-02 dE for cont linesearch -0.119E-06
 trial: gam= 0.36331 g(F)=  0.266E-02 g(S)=  0.000E+00 ort = 0.261E-04 (trialstep = 0.300E+01)
 search vector abs. value=  0.487E-02
 bond charge predicted
       N       E                     dE             d eps       ncg     rms          rms(c)
DAV:   1    -0.382654483134E+03   -0.42691E-02   -0.21020E-01  5050   0.835E-01    0.946E-02
DAV:   2    -0.382654507131E+03   -0.23997E-04   -0.72822E-03  5791   0.156E-01    0.510E-02
DAV:   3    -0.382654448162E+03    0.58968E-04   -0.33052E-04  4926   0.295E-02
  18 F= -.38265445E+03 E0= -.38265447E+03  d E =-.423612E-02
 trial-energy change:   -0.004236  1 .order   -0.004211   -0.008013   -0.000409
 step:   3.1603(harm=  3.1603)  dis= 0.01047  next Energy=  -382.654434 (dE=-0.422E-02)
 bond charge predicted
       N       E                     dE             d eps       ncg     rms          rms(c)
DAV:   1    -0.382654463251E+03    0.43880E-04   -0.64723E-04  5350   0.462E-02    0.118E-02
DAV:   2    -0.382654463244E+03    0.68412E-08   -0.19629E-05  2809   0.854E-03
  19 F= -.38265446E+03 E0= -.38265448E+03  d E =-.425120E-02
 curvature:  -2.88 expect dE=-0.273E-02 dE for cont linesearch -0.437E-06
 trial: gam= 0.34003 g(F)=  0.948E-03 g(S)=  0.000E+00 ort = 0.272E-04 (trialstep = 0.303E+01)
 search vector abs. value=  0.153E-02
 bond charge predicted
       N       E                     dE             d eps       ncg     rms          rms(c)
DAV:   1    -0.382655720087E+03   -0.12568E-02   -0.69244E-02  5042   0.477E-01    0.580E-02
DAV:   2    -0.382655718489E+03    0.15972E-05   -0.20945E-03  5896   0.852E-02    0.327E-02
DAV:   3    -0.382655686342E+03    0.32147E-04   -0.14792E-04  3278   0.195E-02
  20 F= -.38265569E+03 E0= -.38265573E+03  d E =-.122310E-02
 trial-energy change:   -0.001223  1 .order   -0.001219   -0.002901    0.000463
 step:   2.6140(harm=  2.6140)  dis= 0.00347  next Energy=  -382.655714 (dE=-0.125E-02)
 reached required accuracy - stopping structural energy minimisation
 writing wavefunctions
* fix calc kpoints:50, in_plane:0.98, vertical:1.02
 running on    8 total cores
 distrk:  each k-point on    8 cores,    1 groups
 distr:  one band on    8 cores,    1 groups
 using from now: INCAR     
 vasp.5.4.4.18Apr17-6-g9f103f2a35 (build Feb 12 2021 11:32:40) complex          
  
 POSCAR found type information on POSCAR  Al
 POSCAR found :  1 types and     104 ions
 scaLAPACK will be used

 ----------------------------------------------------------------------------- 
|                                                                             |
|           W    W    AA    RRRRR   N    N  II  N    N   GGGG   !!!           |
|           W    W   A  A   R    R  NN   N  II  NN   N  G    G  !!!           |
|           W    W  A    A  R    R  N N  N  II  N N  N  G       !!!           |
|           W WW W  AAAAAA  RRRRR   N  N N  II  N  N N  G  GGG   !            |
|           WW  WW  A    A  R   R   N   NN  II  N   NN  G    G                |
|           W    W  A    A  R    R  N    N  II  N    N   GGGG   !!!           |
|                                                                             |
|      For optimal performance we recommend to set                            |
|        NCORE= 4 - approx SQRT( number of cores)                             |
|      NCORE specifies how many cores store one orbital (NPAR=cpu/NCORE).     |
|      This setting can  greatly improve the performance of VASP for DFT.     |
|      The default,   NCORE=1            might be grossly inefficient         |
|      on modern multi-core architectures or massively parallel machines.     |
|      Do your own testing !!!!                                               |
|      Unfortunately you need to use the default for GW and RPA calculations. |
|      (for HF NCORE is supported but not extensively tested yet)             |
|                                                                             |
 ----------------------------------------------------------------------------- 

 LDA part: xc-table for Pade appr. of Perdew
 generate k-points for:    5    5    3
 found WAVECAR, reading the header
 POSCAR, INCAR and KPOINTS ok, starting setup
 FFT: planning ...
 reading WAVECAR
 the WAVECAR file was read successfully
 initial charge from wavefunction
 entering main loop
       N       E                     dE             d eps       ncg     rms          rms(c)
DAV:   1    -0.382602056309E+03   -0.38260E+03   -0.18416E-04  3042   0.333E-02    0.627E-02
DAV:   2    -0.382601930977E+03    0.12533E-03   -0.45167E-04  4996   0.321E-02    0.322E-02
DAV:   3    -0.382601908513E+03    0.22465E-04   -0.13295E-04  2773   0.175E-02
   1 F= -.38260191E+03 E0= -.38260191E+03  d E =0.000000E+00
 writing wavefunctions
"098_104"
"/usr/local/vasp/vasp.5.4.4.pl2_CentOS6_Intel-2018.5.274/bin/vasp"
* relax calc kpoints:50, in_plane:0.98, vertical:1.04
 running on    8 total cores
 distrk:  each k-point on    8 cores,    1 groups
 distr:  one band on    8 cores,    1 groups
 using from now: INCAR     
 vasp.5.4.4.18Apr17-6-g9f103f2a35 (build Feb 12 2021 11:32:40) complex          
  
 POSCAR found :  1 types and     104 ions
 scaLAPACK will be used

 ----------------------------------------------------------------------------- 
|                                                                             |
|           W    W    AA    RRRRR   N    N  II  N    N   GGGG   !!!           |
|           W    W   A  A   R    R  NN   N  II  NN   N  G    G  !!!           |
|           W    W  A    A  R    R  N N  N  II  N N  N  G       !!!           |
|           W WW W  AAAAAA  RRRRR   N  N N  II  N  N N  G  GGG   !            |
|           WW  WW  A    A  R   R   N   NN  II  N   NN  G    G                |
|           W    W  A    A  R    R  N    N  II  N    N   GGGG   !!!           |
|                                                                             |
|      For optimal performance we recommend to set                            |
|        NCORE= 4 - approx SQRT( number of cores)                             |
|      NCORE specifies how many cores store one orbital (NPAR=cpu/NCORE).     |
|      This setting can  greatly improve the performance of VASP for DFT.     |
|      The default,   NCORE=1            might be grossly inefficient         |
|      on modern multi-core architectures or massively parallel machines.     |
|      Do your own testing !!!!                                               |
|      Unfortunately you need to use the default for GW and RPA calculations. |
|      (for HF NCORE is supported but not extensively tested yet)             |
|                                                                             |
 ----------------------------------------------------------------------------- 

 LDA part: xc-table for Pade appr. of Perdew
 generate k-points for:    5    5    3
 found WAVECAR, reading the header
 WAVECAR: different cutoff or change in lattice found
 POSCAR, INCAR and KPOINTS ok, starting setup
 FFT: planning ...
 reading WAVECAR
 the WAVECAR file was read successfully
 WARNING: dimensions on CHGCAR file are different
 entering main loop
       N       E                     dE             d eps       ncg     rms          rms(c)
DAV:   1    -0.376853094466E+03   -0.37685E+03   -0.20359E+02  5093   0.262E+01    0.102E+01
DAV:   2    -0.375623633525E+03    0.12295E+01   -0.63566E+00  5832   0.458E+00    0.630E+00
DAV:   3    -0.374649035080E+03    0.97460E+00   -0.12653E+00  5655   0.165E+00    0.103E+00
DAV:   4    -0.374610138013E+03    0.38897E-01   -0.79640E-02  5752   0.475E-01    0.367E-01
DAV:   5    -0.374604050363E+03    0.60877E-02   -0.17253E-02  5911   0.187E-01    0.104E-01
DAV:   6    -0.374603871287E+03    0.17908E-03   -0.24133E-03  5680   0.760E-02    0.378E-02
DAV:   7    -0.374603900422E+03   -0.29135E-04   -0.14746E-04  3447   0.218E-02
   1 F= -.37460390E+03 E0= -.37460376E+03  d E =-.374604E+03
 curvature:   0.00 expect dE= 0.000E+00 dE for cont linesearch  0.000E+00
 trial: gam= 0.00000 g(F)=  0.175E+02 g(S)=  0.000E+00 ort = 0.000E+00 (trialstep = 0.100E+01)
 search vector abs. value=  0.175E+02
 bond charge predicted
       N       E                     dE             d eps       ncg     rms          rms(c)
DAV:   1    -0.382211893433E+03   -0.76080E+01   -0.13339E+02  5177   0.200E+01    0.267E+00
DAV:   2    -0.382279978749E+03   -0.68085E-01   -0.10830E+01  5582   0.561E+00    0.152E+00
DAV:   3    -0.382166474991E+03    0.11350E+00   -0.60328E-01  5726   0.123E+00    0.690E-01
DAV:   4    -0.382152260020E+03    0.14215E-01   -0.94947E-02  5768   0.466E-01    0.227E-01
DAV:   5    -0.382152351392E+03   -0.91372E-04   -0.78693E-03  5608   0.148E-01    0.808E-02
DAV:   6    -0.382152368444E+03   -0.17051E-04   -0.60548E-04  5807   0.416E-02
   2 F= -.38215237E+03 E0= -.38215223E+03  d E =-.754847E+01
 trial-energy change:   -7.548468  1 .order   -8.877256  -17.475993   -0.278519
 step:   1.0310(harm=  1.0162)  dis= 0.20554  next Energy=  -382.156649 (dE=-0.755E+01)
 bond charge predicted
       N       E                     dE             d eps       ncg     rms          rms(c)
DAV:   1    -0.382156438586E+03   -0.40872E-02   -0.12343E-01  5280   0.586E-01    0.834E-02
DAV:   2    -0.382156163922E+03    0.27466E-03   -0.72322E-03  5536   0.150E-01    0.368E-02
DAV:   3    -0.382156087747E+03    0.76175E-04   -0.38095E-04  5199   0.315E-02
   3 F= -.38215609E+03 E0= -.38215596E+03  d E =-.755219E+01
 curvature:  -0.08 expect dE=-0.442E-01 dE for cont linesearch -0.520E-05
 trial: gam= 0.03272 g(F)=  0.539E+00 g(S)=  0.000E+00 ort =-0.333E-01 (trialstep = 0.101E+01)
 search vector abs. value=  0.555E+00
 bond charge predicted
       N       E                     dE             d eps       ncg     rms          rms(c)
DAV:   1    -0.382581806932E+03   -0.42564E+00   -0.34874E+00  5310   0.331E+00    0.421E-01
DAV:   2    -0.382579151560E+03    0.26554E-02   -0.22541E-01  5543   0.858E-01    0.199E-01
DAV:   3    -0.382577863968E+03    0.12876E-02   -0.85383E-03  5888   0.153E-01    0.100E-01
DAV:   4    -0.382577626742E+03    0.23723E-03   -0.13686E-03  5679   0.552E-02    0.321E-02
DAV:   5    -0.382577633164E+03   -0.64224E-05   -0.12238E-04  3136   0.196E-02
   4 F= -.38257763E+03 E0= -.38257748E+03  d E =-.421545E+00
 trial-energy change:   -0.421545  1 .order   -0.422975   -0.540810   -0.305139
 step:   2.4348(harm=  2.3090)  dis= 0.05086  next Energy=  -382.790157 (dE=-0.634E+00)
 bond charge predicted
       N       E                     dE             d eps       ncg     rms          rms(c)
DAV:   1    -0.382800484537E+03   -0.22286E+00   -0.69799E+00  5269   0.468E+00    0.605E-01
DAV:   2    -0.382792619675E+03    0.78649E-02   -0.46821E-01  5511   0.123E+00    0.275E-01
DAV:   3    -0.382790241708E+03    0.23780E-02   -0.17736E-02  5880   0.226E-01    0.147E-01
DAV:   4    -0.382789726615E+03    0.51509E-03   -0.30104E-03  5671   0.807E-02    0.475E-02
DAV:   5    -0.382789744431E+03   -0.17816E-04   -0.23639E-04  3888   0.268E-02
   5 F= -.38278974E+03 E0= -.38278955E+03  d E =-.633657E+00
 curvature:  -1.18 expect dE=-0.827E-01 dE for cont linesearch -0.147E-04
 trial: gam= 0.13815 g(F)=  0.700E-01 g(S)=  0.000E+00 ort =-0.263E-02 (trialstep = 0.129E+01)
 search vector abs. value=  0.799E-01
 bond charge predicted
       N       E                     dE             d eps       ncg     rms          rms(c)
DAV:   1    -0.382866745037E+03   -0.77018E-01   -0.75324E-01  5110   0.152E+00    0.193E-01
DAV:   2    -0.382866104767E+03    0.64027E-03   -0.31298E-02  5720   0.332E-01    0.933E-02
DAV:   3    -0.382865728160E+03    0.37661E-03   -0.21951E-03  5688   0.710E-02    0.365E-02
DAV:   4    -0.382865738812E+03   -0.10653E-04   -0.17337E-04  3456   0.235E-02
   6 F= -.38286574E+03 E0= -.38286556E+03  d E =-.759944E-01
 trial-energy change:   -0.075994  1 .order   -0.076115   -0.089954   -0.062277
 step:   4.1989(harm=  4.1989)  dis= 0.04290  next Energy=  -382.935924 (dE=-0.146E+00)
 bond charge predicted
       N       E                     dE             d eps       ncg     rms          rms(c)
DAV:   1    -0.382936795513E+03   -0.71067E-01   -0.37899E+00  5058   0.342E+00    0.410E-01
DAV:   2    -0.382936291089E+03    0.50442E-03   -0.15508E-01  5736   0.740E-01    0.203E-01
DAV:   3    -0.382934611765E+03    0.16793E-02   -0.97303E-03  5696   0.153E-01    0.810E-02
DAV:   4    -0.382934679597E+03   -0.67832E-04   -0.92841E-04  5880   0.516E-02
   7 F= -.38293468E+03 E0= -.38293464E+03  d E =-.144935E+00
 curvature:  -2.41 expect dE=-0.104E+00 dE for cont linesearch -0.458E-04
 trial: gam= 0.61245 g(F)=  0.431E-01 g(S)=  0.000E+00 ort =-0.123E-02 (trialstep = 0.187E+01)
 search vector abs. value=  0.715E-01
 bond charge predicted
       N       E                     dE             d eps       ncg     rms          rms(c)
DAV:   1    -0.383000153301E+03   -0.65542E-01   -0.10095E+00  5037   0.190E+00    0.202E-01
DAV:   2    -0.383000582702E+03   -0.42940E-03   -0.34423E-02  5712   0.340E-01    0.107E-01
DAV:   3    -0.383000559569E+03    0.23133E-04   -0.11220E-03  5952   0.543E-02    0.575E-02
DAV:   4    -0.383000571991E+03   -0.12423E-04   -0.13209E-04  3232   0.195E-02
   8 F= -.38300057E+03 E0= -.38300048E+03  d E =-.658924E-01
 trial-energy change:   -0.065892  1 .order   -0.066021   -0.079269   -0.052773
 step:   5.6046(harm=  5.6046)  dis= 0.04414  next Energy=  -383.053257 (dE=-0.119E+00)
 bond charge predicted
       N       E                     dE             d eps       ncg     rms          rms(c)
DAV:   1    -0.383046160175E+03   -0.45601E-01   -0.40150E+00  5025   0.379E+00    0.378E-01
DAV:   2    -0.383049560487E+03   -0.34003E-02   -0.13235E-01  5776   0.669E-01    0.201E-01
DAV:   3    -0.383049521433E+03    0.39054E-04   -0.41046E-03  5960   0.105E-01    0.106E-01
DAV:   4    -0.383049590768E+03   -0.69335E-04   -0.51931E-04  5808   0.373E-02
   9 F= -.38304959E+03 E0= -.38304950E+03  d E =-.114911E+00
 curvature:  -4.74 expect dE=-0.123E+00 dE for cont linesearch -0.243E-03
 trial: gam= 0.62993 g(F)=  0.259E-01 g(S)=  0.000E+00 ort =-0.192E-02 (trialstep = 0.262E+01)
 search vector abs. value=  0.519E-01
 bond charge predicted
       N       E                     dE             d eps       ncg     rms          rms(c)
DAV:   1    -0.383084995819E+03   -0.35474E-01   -0.18422E+00  5050   0.242E+00    0.288E-01
DAV:   2    -0.383083949704E+03    0.10461E-02   -0.88816E-02  5644   0.544E-01    0.134E-01
DAV:   3    -0.383083521538E+03    0.42817E-03   -0.39090E-03  5912   0.995E-02    0.651E-02
DAV:   4    -0.383083527034E+03   -0.54962E-05   -0.42134E-04  5408   0.332E-02
  10 F= -.38308353E+03 E0= -.38308323E+03  d E =-.339363E-01
 trial-energy change:   -0.033936  1 .order   -0.034455   -0.064736   -0.004175
 step:   2.8107(harm=  2.8002)  dis= 0.01882  next Energy=  -383.083679 (dE=-0.341E-01)
 bond charge predicted
       N       E                     dE             d eps       ncg     rms          rms(c)
DAV:   1    -0.383083675763E+03   -0.15423E-03   -0.96345E-03  5207   0.175E-01    0.232E-02
DAV:   2    -0.383083681054E+03   -0.52905E-05   -0.42699E-04  5368   0.379E-02
  11 F= -.38308368E+03 E0= -.38308336E+03  d E =-.340903E-01
 curvature:  -2.93 expect dE=-0.301E-01 dE for cont linesearch -0.381E-06
 trial: gam= 0.33215 g(F)=  0.103E-01 g(S)=  0.000E+00 ort =-0.821E-04 (trialstep = 0.266E+01)
 search vector abs. value=  0.160E-01
 bond charge predicted
       N       E                     dE             d eps       ncg     rms          rms(c)
DAV:   1    -0.383104663917E+03   -0.20988E-01   -0.47684E-01  5019   0.128E+00    0.133E-01
DAV:   2    -0.383105066597E+03   -0.40268E-03   -0.99697E-03  5984   0.188E-01    0.793E-02
DAV:   3    -0.383105000167E+03    0.66431E-04   -0.45945E-04  5662   0.345E-02
  12 F= -.38310500E+03 E0= -.38310463E+03  d E =-.213191E-01
 trial-energy change:   -0.021319  1 .order   -0.021249   -0.027259   -0.015240
 step:   6.0279(harm=  6.0279)  dis= 0.03192  next Energy=  -383.114593 (dE=-0.309E-01)
 bond charge predicted
       N       E                     dE             d eps       ncg     rms          rms(c)
DAV:   1    -0.383114663695E+03   -0.95971E-02   -0.76367E-01  5019   0.161E+00    0.168E-01
DAV:   2    -0.383115384667E+03   -0.72097E-03   -0.15860E-02  6032   0.236E-01    0.101E-01
DAV:   3    -0.383115295492E+03    0.89174E-04   -0.69012E-04  5736   0.426E-02
  13 F= -.38311530E+03 E0= -.38311488E+03  d E =-.316144E-01
 curvature:  -4.69 expect dE=-0.338E-01 dE for cont linesearch -0.495E-04
 trial: gam= 0.69755 g(F)=  0.721E-02 g(S)=  0.000E+00 ort = 0.410E-03 (trialstep = 0.333E+01)
 search vector abs. value=  0.155E-01
 bond charge predicted
       N       E                     dE             d eps       ncg     rms          rms(c)
DAV:   1    -0.383131052368E+03   -0.15668E-01   -0.73869E-01  5020   0.159E+00    0.185E-01
DAV:   2    -0.383130997820E+03    0.54548E-04   -0.20845E-02  5888   0.267E-01    0.102E-01
DAV:   3    -0.383130851488E+03    0.14633E-03   -0.12141E-03  5760   0.550E-02    0.452E-02
DAV:   4    -0.383130861404E+03   -0.99160E-05   -0.95438E-05  3072   0.177E-02
  14 F= -.38313086E+03 E0= -.38313066E+03  d E =-.155659E-01
 trial-energy change:   -0.015566  1 .order   -0.015574   -0.024959   -0.006189
 step:   4.4304(harm=  4.4304)  dis= 0.03116  next Energy=  -383.131890 (dE=-0.166E-01)
 bond charge predicted
       N       E                     dE             d eps       ncg     rms          rms(c)
DAV:   1    -0.383131905852E+03   -0.10544E-02   -0.80731E-02  5059   0.526E-01    0.572E-02
DAV:   2    -0.383131935434E+03   -0.29582E-04   -0.22106E-03  5944   0.873E-02    0.319E-02
DAV:   3    -0.383131920384E+03    0.15050E-04   -0.10484E-04  3167   0.172E-02
  15 F= -.38313192E+03 E0= -.38313174E+03  d E =-.166249E-01
 curvature:  -4.60 expect dE=-0.150E-01 dE for cont linesearch -0.749E-06
 trial: gam= 0.49605 g(F)=  0.326E-02 g(S)=  0.000E+00 ort = 0.503E-04 (trialstep = 0.355E+01)
 search vector abs. value=  0.713E-02
 bond charge predicted
       N       E                     dE             d eps       ncg     rms          rms(c)
DAV:   1    -0.383137166202E+03   -0.52308E-02   -0.42415E-01  5038   0.118E+00    0.139E-01
DAV:   2    -0.383137250388E+03   -0.84186E-04   -0.16166E-02  5752   0.231E-01    0.742E-02
DAV:   3    -0.383137162445E+03    0.87943E-04   -0.67474E-04  5808   0.418E-02
  16 F= -.38313716E+03 E0= -.38313694E+03  d E =-.524206E-02
 trial-energy change:   -0.005242  1 .order   -0.005379   -0.011661    0.000902
 step:   3.2965(harm=  3.2965)  dis= 0.01189  next Energy=  -383.137332 (dE=-0.541E-02)
 bond charge predicted
       N       E                     dE             d eps       ncg     rms          rms(c)
DAV:   1    -0.383137190890E+03    0.59497E-04   -0.23535E-03  5174   0.877E-02    0.843E-03
DAV:   2    -0.383137190264E+03    0.62687E-06   -0.83906E-05  2866   0.174E-02
  17 F= -.38313719E+03 E0= -.38313697E+03  d E =-.526988E-02
 curvature:  -3.58 expect dE=-0.403E-02 dE for cont linesearch -0.379E-07
 trial: gam= 0.30175 g(F)=  0.113E-02 g(S)=  0.000E+00 ort =-0.868E-05 (trialstep = 0.350E+01)
 search vector abs. value=  0.177E-02
 bond charge predicted
       N       E                     dE             d eps       ncg     rms          rms(c)
DAV:   1    -0.383139173198E+03   -0.19823E-02   -0.95863E-02  5072   0.572E-01    0.641E-02
DAV:   2    -0.383139209468E+03   -0.36270E-04   -0.21201E-03  5944   0.866E-02    0.380E-02
DAV:   3    -0.383139176741E+03    0.32726E-04   -0.17551E-04  3400   0.210E-02
  18 F= -.38313918E+03 E0= -.38313892E+03  d E =-.198648E-02
 trial-energy change:   -0.001986  1 .order   -0.001994   -0.003934   -0.000054
 step:   3.5489(harm=  3.5489)  dis= 0.00508  next Energy=  -383.139184 (dE=-0.199E-02)
 reached required accuracy - stopping structural energy minimisation
 writing wavefunctions
* fix calc kpoints:50, in_plane:0.98, vertical:1.04
 running on    8 total cores
 distrk:  each k-point on    8 cores,    1 groups
 distr:  one band on    8 cores,    1 groups
 using from now: INCAR     
 vasp.5.4.4.18Apr17-6-g9f103f2a35 (build Feb 12 2021 11:32:40) complex          
  
 POSCAR found type information on POSCAR  Al
 POSCAR found :  1 types and     104 ions
 scaLAPACK will be used

 ----------------------------------------------------------------------------- 
|                                                                             |
|           W    W    AA    RRRRR   N    N  II  N    N   GGGG   !!!           |
|           W    W   A  A   R    R  NN   N  II  NN   N  G    G  !!!           |
|           W    W  A    A  R    R  N N  N  II  N N  N  G       !!!           |
|           W WW W  AAAAAA  RRRRR   N  N N  II  N  N N  G  GGG   !            |
|           WW  WW  A    A  R   R   N   NN  II  N   NN  G    G                |
|           W    W  A    A  R    R  N    N  II  N    N   GGGG   !!!           |
|                                                                             |
|      For optimal performance we recommend to set                            |
|        NCORE= 4 - approx SQRT( number of cores)                             |
|      NCORE specifies how many cores store one orbital (NPAR=cpu/NCORE).     |
|      This setting can  greatly improve the performance of VASP for DFT.     |
|      The default,   NCORE=1            might be grossly inefficient         |
|      on modern multi-core architectures or massively parallel machines.     |
|      Do your own testing !!!!                                               |
|      Unfortunately you need to use the default for GW and RPA calculations. |
|      (for HF NCORE is supported but not extensively tested yet)             |
|                                                                             |
 ----------------------------------------------------------------------------- 

 LDA part: xc-table for Pade appr. of Perdew
 generate k-points for:    5    5    3
 found WAVECAR, reading the header
 POSCAR, INCAR and KPOINTS ok, starting setup
 FFT: planning ...
 reading WAVECAR
 the WAVECAR file was read successfully
 initial charge from wavefunction
 entering main loop
       N       E                     dE             d eps       ncg     rms          rms(c)
DAV:   1    -0.383118558777E+03   -0.38312E+03   -0.18671E-04  3163   0.345E-02    0.389E-02
DAV:   2    -0.383118718617E+03   -0.15984E-03   -0.17561E-04  3194   0.186E-02    0.189E-02
DAV:   3    -0.383118781461E+03   -0.62844E-04   -0.56661E-05  2772   0.112E-02
   1 F= -.38311878E+03 E0= -.38311878E+03  d E =0.000000E+00
 writing wavefunctions
"100_098"
"/usr/local/vasp/vasp.5.4.4.pl2_CentOS6_Intel-2018.5.274/bin/vasp"
* relax calc kpoints:50, in_plane:1.00, vertical:0.98
 running on    8 total cores
 distrk:  each k-point on    8 cores,    1 groups
 distr:  one band on    8 cores,    1 groups
 using from now: INCAR     
 vasp.5.4.4.18Apr17-6-g9f103f2a35 (build Feb 12 2021 11:32:40) complex          
  
 POSCAR found :  1 types and     104 ions
 scaLAPACK will be used

 ----------------------------------------------------------------------------- 
|                                                                             |
|           W    W    AA    RRRRR   N    N  II  N    N   GGGG   !!!           |
|           W    W   A  A   R    R  NN   N  II  NN   N  G    G  !!!           |
|           W    W  A    A  R    R  N N  N  II  N N  N  G       !!!           |
|           W WW W  AAAAAA  RRRRR   N  N N  II  N  N N  G  GGG   !            |
|           WW  WW  A    A  R   R   N   NN  II  N   NN  G    G                |
|           W    W  A    A  R    R  N    N  II  N    N   GGGG   !!!           |
|                                                                             |
|      For optimal performance we recommend to set                            |
|        NCORE= 4 - approx SQRT( number of cores)                             |
|      NCORE specifies how many cores store one orbital (NPAR=cpu/NCORE).     |
|      This setting can  greatly improve the performance of VASP for DFT.     |
|      The default,   NCORE=1            might be grossly inefficient         |
|      on modern multi-core architectures or massively parallel machines.     |
|      Do your own testing !!!!                                               |
|      Unfortunately you need to use the default for GW and RPA calculations. |
|      (for HF NCORE is supported but not extensively tested yet)             |
|                                                                             |
 ----------------------------------------------------------------------------- 

 LDA part: xc-table for Pade appr. of Perdew
 generate k-points for:    5    5    3
 found WAVECAR, reading the header
 WAVECAR: different cutoff or change in lattice found
 POSCAR, INCAR and KPOINTS ok, starting setup
 FFT: planning ...
 reading WAVECAR
 the WAVECAR file was read successfully
 WARNING: dimensions on CHGCAR file are different
 entering main loop
       N       E                     dE             d eps       ncg     rms          rms(c)
DAV:   1    -0.370504289436E+03   -0.37050E+03   -0.24657E+02  5539   0.279E+01    0.108E+01
DAV:   2    -0.369211777622E+03    0.12925E+01   -0.98030E+00  5813   0.551E+00    0.667E+00
DAV:   3    -0.368166140340E+03    0.10456E+01   -0.18629E+00  5684   0.195E+00    0.129E+00
DAV:   4    -0.368114462996E+03    0.51677E-01   -0.10791E-01  5797   0.553E-01    0.471E-01
DAV:   5    -0.368103942797E+03    0.10520E-01   -0.26210E-02  5808   0.234E-01    0.105E-01
DAV:   6    -0.368103801941E+03    0.14086E-03   -0.30561E-03  5759   0.863E-02    0.338E-02
DAV:   7    -0.368103825160E+03   -0.23219E-04   -0.14246E-04  3304   0.212E-02
   1 F= -.36810383E+03 E0= -.36810344E+03  d E =-.368104E+03
 curvature:   0.00 expect dE= 0.000E+00 dE for cont linesearch  0.000E+00
 trial: gam= 0.00000 g(F)=  0.380E+02 g(S)=  0.000E+00 ort = 0.000E+00 (trialstep = 0.100E+01)
 search vector abs. value=  0.380E+02
 bond charge predicted
[...]
DAV:   2    -0.381644954407E+03   -0.31095E-03   -0.89276E-03  5912   0.173E-01    0.559E-02
DAV:   3    -0.381644884075E+03    0.70333E-04   -0.46542E-04  5488   0.348E-02
  16 F= -.38164488E+03 E0= -.38164484E+03  d E =-.392651E-02
 trial-energy change:   -0.003927  1 .order   -0.003806   -0.006528   -0.001085
 step:   3.8761(harm=  3.8761)  dis= 0.01095  next Energy=  -381.644872 (dE=-0.391E-02)
 reached required accuracy - stopping structural energy minimisation
 writing wavefunctions
* fix calc kpoints:50, in_plane:1.04, vertical:1.02
 running on    8 total cores
 distrk:  each k-point on    8 cores,    1 groups
 distr:  one band on    8 cores,    1 groups
 using from now: INCAR     
 vasp.5.4.4.18Apr17-6-g9f103f2a35 (build Feb 12 2021 11:32:40) complex          
  
 POSCAR found type information on POSCAR  Al
 POSCAR found :  1 types and     104 ions
 scaLAPACK will be used

 ----------------------------------------------------------------------------- 
|                                                                             |
|           W    W    AA    RRRRR   N    N  II  N    N   GGGG   !!!           |
|           W    W   A  A   R    R  NN   N  II  NN   N  G    G  !!!           |
|           W    W  A    A  R    R  N N  N  II  N N  N  G       !!!           |
|           W WW W  AAAAAA  RRRRR   N  N N  II  N  N N  G  GGG   !            |
|           WW  WW  A    A  R   R   N   NN  II  N   NN  G    G                |
|           W    W  A    A  R    R  N    N  II  N    N   GGGG   !!!           |
|                                                                             |
|      For optimal performance we recommend to set                            |
|        NCORE= 4 - approx SQRT( number of cores)                             |
|      NCORE specifies how many cores store one orbital (NPAR=cpu/NCORE).     |
|      This setting can  greatly improve the performance of VASP for DFT.     |
|      The default,   NCORE=1            might be grossly inefficient         |
|      on modern multi-core architectures or massively parallel machines.     |
|      Do your own testing !!!!                                               |
|      Unfortunately you need to use the default for GW and RPA calculations. |
|      (for HF NCORE is supported but not extensively tested yet)             |
|                                                                             |
 ----------------------------------------------------------------------------- 

 LDA part: xc-table for Pade appr. of Perdew
 generate k-points for:    5    5    3
 found WAVECAR, reading the header
 POSCAR, INCAR and KPOINTS ok, starting setup
 FFT: planning ...
 reading WAVECAR
 the WAVECAR file was read successfully
 initial charge from wavefunction
 entering main loop
       N       E                     dE             d eps       ncg     rms          rms(c)
DAV:   1    -0.381621885760E+03   -0.38162E+03   -0.23307E-04  3464   0.348E-02    0.562E-02
DAV:   2    -0.381621911477E+03   -0.25716E-04   -0.10131E-03  4759   0.453E-02    0.287E-02
DAV:   3    -0.381621877994E+03    0.33483E-04   -0.10492E-04  2960   0.172E-02
   1 F= -.38162188E+03 E0= -.38162188E+03  d E =0.000000E+00
 writing wavefunctions
"104_104"
"/usr/local/vasp/vasp.5.4.4.pl2_CentOS6_Intel-2018.5.274/bin/vasp"
* relax calc kpoints:50, in_plane:1.04, vertical:1.04
 running on    8 total cores
 distrk:  each k-point on    8 cores,    1 groups
 distr:  one band on    8 cores,    1 groups
 using from now: INCAR     
 vasp.5.4.4.18Apr17-6-g9f103f2a35 (build Feb 12 2021 11:32:40) complex          
  
 POSCAR found :  1 types and     104 ions
 scaLAPACK will be used

 ----------------------------------------------------------------------------- 
|                                                                             |
|           W    W    AA    RRRRR   N    N  II  N    N   GGGG   !!!           |
|           W    W   A  A   R    R  NN   N  II  NN   N  G    G  !!!           |
|           W    W  A    A  R    R  N N  N  II  N N  N  G       !!!           |
|           W WW W  AAAAAA  RRRRR   N  N N  II  N  N N  G  GGG   !            |
|           WW  WW  A    A  R   R   N   NN  II  N   NN  G    G                |
|           W    W  A    A  R    R  N    N  II  N    N   GGGG   !!!           |
|                                                                             |
|      For optimal performance we recommend to set                            |
|        NCORE= 4 - approx SQRT( number of cores)                             |
|      NCORE specifies how many cores store one orbital (NPAR=cpu/NCORE).     |
|      This setting can  greatly improve the performance of VASP for DFT.     |
|      The default,   NCORE=1            might be grossly inefficient         |
|      on modern multi-core architectures or massively parallel machines.     |
|      Do your own testing !!!!                                               |
|      Unfortunately you need to use the default for GW and RPA calculations. |
|      (for HF NCORE is supported but not extensively tested yet)             |
|                                                                             |
 ----------------------------------------------------------------------------- 

 LDA part: xc-table for Pade appr. of Perdew
 generate k-points for:    5    5    3
 found WAVECAR, reading the header
 WAVECAR: different cutoff or change in lattice found
 POSCAR, INCAR and KPOINTS ok, starting setup
 FFT: planning ...
 reading WAVECAR
 the WAVECAR file was read successfully
 WARNING: dimensions on CHGCAR file are different
 entering main loop
       N       E                     dE             d eps       ncg     rms          rms(c)
DAV:   1    -0.374145596885E+03   -0.37415E+03   -0.23270E+02  5172   0.268E+01    0.101E+01
DAV:   2    -0.373010989717E+03    0.11346E+01   -0.91493E+00  5710   0.531E+00    0.624E+00
DAV:   3    -0.372111579310E+03    0.89941E+00   -0.17862E+00  5710   0.190E+00    0.139E+00
DAV:   4    -0.372055481893E+03    0.56097E-01   -0.12343E-01  5864   0.572E-01    0.428E-01
DAV:   5    -0.372045413769E+03    0.10068E-01   -0.25274E-02  5872   0.239E-01    0.122E-01
DAV:   6    -0.372045214443E+03    0.19933E-03   -0.49505E-03  5720   0.102E-01    0.423E-02
DAV:   7    -0.372045235222E+03   -0.20779E-04   -0.24598E-04  3960   0.276E-02
   1 F= -.37204524E+03 E0= -.37204523E+03  d E =-.372045E+03
 curvature:   0.00 expect dE= 0.000E+00 dE for cont linesearch  0.000E+00
 trial: gam= 0.00000 g(F)=  0.173E+02 g(S)=  0.000E+00 ort = 0.000E+00 (trialstep = 0.100E+01)
 search vector abs. value=  0.173E+02
 bond charge predicted
       N       E                     dE             d eps       ncg     rms          rms(c)
DAV:   1    -0.379804481392E+03   -0.77593E+01   -0.12572E+02  5201   0.191E+01    0.238E+00
DAV:   2    -0.380081204202E+03   -0.27672E+00   -0.10696E+01  5606   0.539E+00    0.151E+00
DAV:   3    -0.379985886766E+03    0.95317E-01   -0.53597E-01  5766   0.115E+00    0.737E-01
DAV:   4    -0.379968285508E+03    0.17601E-01   -0.10710E-01  5656   0.476E-01    0.216E-01
DAV:   5    -0.379968866055E+03   -0.58055E-03   -0.93530E-03  5736   0.163E-01    0.913E-02
DAV:   6    -0.379968886835E+03   -0.20780E-04   -0.76516E-04  5816   0.442E-02
   2 F= -.37996889E+03 E0= -.37996893E+03  d E =-.792365E+01
 trial-energy change:   -7.923652  1 .order   -9.319207  -17.331033   -1.307381
 step:   1.2276(harm=  1.0816)  dis= 0.24818  next Energy=  -380.101204 (dE=-0.806E+01)
 bond charge predicted
       N       E                     dE             d eps       ncg     rms          rms(c)
DAV:   1    -0.380052385679E+03   -0.83520E-01   -0.62572E+00  5146   0.413E+00    0.531E-01
DAV:   2    -0.380051109888E+03    0.12758E-02   -0.37039E-01  5551   0.105E+00    0.277E-01
DAV:   3    -0.380047409889E+03    0.37000E-02   -0.17991E-02  5712   0.216E-01    0.123E-01
DAV:   4    -0.380047108985E+03    0.30090E-03   -0.33366E-03  5696   0.826E-02    0.408E-02
DAV:   5    -0.380047131379E+03   -0.22394E-04   -0.33715E-04  4584   0.299E-02
   3 F= -.38004713E+03 E0= -.38004711E+03  d E =-.800190E+01
 curvature:   1.19 expect dE= 0.644E+00 dE for cont linesearch  0.218E-01
 ZBRENT: interpolating
 opt :   1.1590  next Energy=  -380.066449 (dE=-0.802E+01)
 bond charge predicted
       N       E                     dE             d eps       ncg     rms          rms(c)
DAV:   1    -0.380068034813E+03   -0.20926E-01   -0.57042E-01  5097   0.123E+00    0.162E-01
DAV:   2    -0.380067720526E+03    0.31429E-03   -0.31526E-02  5568   0.309E-01    0.794E-02
DAV:   3    -0.380067411120E+03    0.30941E-03   -0.14953E-03  5702   0.640E-02    0.379E-02
DAV:   4    -0.380067376047E+03    0.35073E-04   -0.36650E-04  5085   0.268E-02
   4 F= -.38006738E+03 E0= -.38006724E+03  d E =-.802214E+01
 curvature:  -1.05 expect dE=-0.521E+00 dE for cont linesearch -0.324E-04
 trial: gam= 0.02984 g(F)=  0.494E+00 g(S)=  0.000E+00 ort =-0.231E-01 (trialstep = 0.103E+01)
 search vector abs. value=  0.508E+00
 bond charge predicted
       N       E                     dE             d eps       ncg     rms          rms(c)
DAV:   1    -0.380479312680E+03   -0.41190E+00   -0.32978E+00  5237   0.314E+00    0.382E-01
DAV:   2    -0.380479768728E+03   -0.45605E-03   -0.22345E-01  5508   0.824E-01    0.186E-01
DAV:   3    -0.380478806841E+03    0.96189E-03   -0.78865E-03  5936   0.149E-01    0.990E-02
DAV:   4    -0.380478551017E+03    0.25582E-03   -0.15322E-03  5647   0.568E-02    0.279E-02
DAV:   5    -0.380478557981E+03   -0.69637E-05   -0.17817E-04  3320   0.229E-02
   5 F= -.38047856E+03 E0= -.38047856E+03  d E =-.411182E+00
 trial-energy change:   -0.411182  1 .order   -0.412875   -0.509045   -0.316705
 step:   3.0443(harm=  2.7308)  dis= 0.07033  next Energy=  -380.774862 (dE=-0.707E+00)
 bond charge predicted
       N       E                     dE             d eps       ncg     rms          rms(c)
DAV:   1    -0.380775188780E+03   -0.29664E+00   -0.12347E+01  5245   0.608E+00    0.721E-01
DAV:   2    -0.380778933679E+03   -0.37449E-02   -0.81980E-01  5540   0.159E+00    0.350E-01
DAV:   3    -0.380775667533E+03    0.32661E-02   -0.30225E-02  5943   0.288E-01    0.184E-01
DAV:   4    -0.380774893457E+03    0.77408E-03   -0.53160E-03  5734   0.108E-01    0.554E-02
DAV:   5    -0.380774939047E+03   -0.45590E-04   -0.85754E-04  5575   0.472E-02
   6 F= -.38077494E+03 E0= -.38077503E+03  d E =-.707563E+00
 curvature:  -1.36 expect dE=-0.638E-01 dE for cont linesearch -0.215E-04
 trial: gam= 0.10181 g(F)=  0.470E-01 g(S)=  0.000E+00 ort =-0.284E-02 (trialstep = 0.143E+01)
 search vector abs. value=  0.517E-01
 bond charge predicted
       N       E                     dE             d eps       ncg     rms          rms(c)
DAV:   1    -0.380828886737E+03   -0.53993E-01   -0.64307E-01  5116   0.136E+00    0.149E-01
DAV:   2    -0.380829579555E+03   -0.69282E-03   -0.29637E-02  5624   0.317E-01    0.755E-02
DAV:   3    -0.380829284912E+03    0.29464E-03   -0.15627E-03  5726   0.616E-02    0.294E-02
DAV:   4    -0.380829289897E+03   -0.49857E-05   -0.15201E-04  3254   0.209E-02
   7 F= -.38082929E+03 E0= -.38082934E+03  d E =-.543509E-01
 trial-energy change:   -0.054351  1 .order   -0.054425   -0.066955   -0.041896
 step:   3.8323(harm=  3.8323)  dis= 0.02760  next Energy=  -380.864386 (dE=-0.894E-01)
 bond charge predicted
       N       E                     dE             d eps       ncg     rms          rms(c)
DAV:   1    -0.380864884342E+03   -0.35599E-01   -0.17986E+00  5115   0.228E+00    0.256E-01
DAV:   2    -0.380866590298E+03   -0.17060E-02   -0.81691E-02  5640   0.527E-01    0.132E-01
DAV:   3    -0.380865624000E+03    0.96630E-03   -0.49646E-03  5695   0.107E-01    0.462E-02
DAV:   4    -0.380865661898E+03   -0.37898E-04   -0.46270E-04  4848   0.366E-02
   8 F= -.38086566E+03 E0= -.38086544E+03  d E =-.907229E-01
 curvature:  -2.12 expect dE=-0.273E-01 dE for cont linesearch -0.452E-04
 trial: gam= 0.22764 g(F)=  0.129E-01 g(S)=  0.000E+00 ort = 0.105E-02 (trialstep = 0.191E+01)
 search vector abs. value=  0.160E-01
 bond charge predicted
       N       E                     dE             d eps       ncg     rms          rms(c)
DAV:   1    -0.380886918276E+03   -0.21294E-01   -0.24110E-01  5064   0.906E-01    0.902E-02
DAV:   2    -0.380887144635E+03   -0.22636E-03   -0.70976E-03  5824   0.153E-01    0.507E-02
DAV:   3    -0.380887119540E+03    0.25095E-04   -0.27614E-04  4157   0.281E-02
   9 F= -.38088712E+03 E0= -.38088688E+03  d E =-.214576E-01
 trial-energy change:   -0.021458  1 .order   -0.021438   -0.025090   -0.017787
 step:   6.5753(harm=  6.5753)  dis= 0.03197  next Energy=  -380.908760 (dE=-0.431E-01)
 bond charge predicted
       N       E                     dE             d eps       ncg     rms          rms(c)
DAV:   1    -0.380909582298E+03   -0.22438E-01   -0.14290E+00  5034   0.221E+00    0.220E-01
DAV:   2    -0.380911047223E+03   -0.14649E-02   -0.41623E-02  5840   0.370E-01    0.124E-01
DAV:   3    -0.380910938615E+03    0.10861E-03   -0.17177E-03  5808   0.676E-02    0.561E-02
DAV:   4    -0.380910966002E+03   -0.27388E-04   -0.19416E-04  3576   0.237E-02
  10 F= -.38091097E+03 E0= -.38091076E+03  d E =-.453041E-01
 curvature:  -4.02 expect dE=-0.407E-01 dE for cont linesearch -0.195E-03
 trial: gam= 0.76109 g(F)=  0.101E-01 g(S)=  0.000E+00 ort = 0.881E-03 (trialstep = 0.220E+01)
 search vector abs. value=  0.208E-01
 bond charge predicted
       N       E                     dE             d eps       ncg     rms          rms(c)
DAV:   1    -0.380928345541E+03   -0.17407E-01   -0.45048E-01  5020   0.121E+00    0.120E-01
DAV:   2    -0.380928796328E+03   -0.45079E-03   -0.15347E-02  5799   0.223E-01    0.652E-02
DAV:   3    -0.380928724065E+03    0.72263E-04   -0.58712E-04  5712   0.394E-02
  11 F= -.38092872E+03 E0= -.38092860E+03  d E =-.177581E-01
 trial-energy change:   -0.017758  1 .order   -0.017702   -0.023742   -0.011662
 step:   4.3182(harm=  4.3182)  dis= 0.02071  next Energy=  -380.934297 (dE=-0.233E-01)
 bond charge predicted
       N       E                     dE             d eps       ncg     rms          rms(c)
DAV:   1    -0.380934071421E+03   -0.52751E-02   -0.41829E-01  5066   0.116E+00    0.120E-01
DAV:   2    -0.380934556042E+03   -0.48462E-03   -0.14100E-02  5824   0.214E-01    0.664E-02
DAV:   3    -0.380934505952E+03    0.50091E-04   -0.52697E-04  5688   0.376E-02
  12 F= -.38093451E+03 E0= -.38093451E+03  d E =-.235399E-01
 curvature:  -4.15 expect dE=-0.703E-02 dE for cont linesearch -0.194E-08
 trial: gam= 0.25452 g(F)=  0.169E-02 g(S)=  0.000E+00 ort = 0.311E-05 (trialstep = 0.262E+01)
 search vector abs. value=  0.304E-02
 bond charge predicted
       N       E                     dE             d eps       ncg     rms          rms(c)
DAV:   1    -0.380938239099E+03   -0.36831E-02   -0.80170E-02  5100   0.522E-01    0.533E-02
DAV:   2    -0.380938342934E+03   -0.10383E-03   -0.13049E-03  6040   0.680E-02    0.330E-02
DAV:   3    -0.380938343116E+03   -0.18199E-06   -0.85972E-05  3072   0.153E-02
  13 F= -.38093834E+03 E0= -.38093839E+03  d E =-.383716E-02
 trial-energy change:   -0.003837  1 .order   -0.003763   -0.004442   -0.003083
 step:   8.5641(harm=  8.5641)  dis= 0.01530  next Energy=  -380.941763 (dE=-0.726E-02)
 bond charge predicted
       N       E                     dE             d eps       ncg     rms          rms(c)
DAV:   1    -0.380941367578E+03   -0.30246E-02   -0.41192E-01  5032   0.119E+00    0.107E-01
DAV:   2    -0.380941906881E+03   -0.53930E-03   -0.67029E-03  6048   0.154E-01    0.662E-02
DAV:   3    -0.380941908630E+03   -0.17493E-05   -0.40861E-04  5264   0.323E-02
  14 F= -.38094191E+03 E0= -.38094197E+03  d E =-.740268E-02
 curvature:  -7.68 expect dE=-0.679E-02 dE for cont linesearch -0.586E-07
 trial: gam= 0.43610 g(F)=  0.883E-03 g(S)=  0.000E+00 ort = 0.482E-05 (trialstep = 0.381E+01)
 search vector abs. value=  0.147E-02
 bond charge predicted
       N       E                     dE             d eps       ncg     rms          rms(c)
DAV:   1    -0.380944459381E+03   -0.25525E-02   -0.90569E-02  5083   0.540E-01    0.578E-02
DAV:   2    -0.380944570862E+03   -0.11148E-03   -0.28625E-03  5904   0.965E-02    0.323E-02
DAV:   3    -0.380944560578E+03    0.10284E-04   -0.11971E-04  3183   0.189E-02
  15 F= -.38094456E+03 E0= -.38094462E+03  d E =-.265195E-02
 trial-energy change:   -0.002652  1 .order   -0.002594   -0.003374   -0.001814
 step:   8.2402(harm=  8.2402)  dis= 0.01234  next Energy=  -380.945557 (dE=-0.365E-02)
 bond charge predicted
       N       E                     dE             d eps       ncg     rms          rms(c)
DAV:   1    -0.380945457358E+03   -0.88650E-03   -0.12314E-01  5050   0.629E-01    0.652E-02
DAV:   2    -0.380945639978E+03   -0.18262E-03   -0.38475E-03  5928   0.112E-01    0.367E-02
DAV:   3    -0.380945630320E+03    0.96577E-05   -0.14098E-04  3328   0.210E-02
  16 F= -.38094563E+03 E0= -.38094570E+03  d E =-.372169E-02
 curvature:  -6.82 expect dE=-0.505E-02 dE for cont linesearch -0.364E-06
 trial: gam= 0.88173 g(F)=  0.740E-03 g(S)=  0.000E+00 ort =-0.884E-05 (trialstep = 0.369E+01)
 search vector abs. value=  0.186E-02
 reached required accuracy - stopping structural energy minimisation
 writing wavefunctions
* fix calc kpoints:50, in_plane:1.04, vertical:1.04
 running on    8 total cores
 distrk:  each k-point on    8 cores,    1 groups
 distr:  one band on    8 cores,    1 groups
 using from now: INCAR     
 vasp.5.4.4.18Apr17-6-g9f103f2a35 (build Feb 12 2021 11:32:40) complex          
  
 POSCAR found type information on POSCAR  Al
 POSCAR found :  1 types and     104 ions
 scaLAPACK will be used

 ----------------------------------------------------------------------------- 
|                                                                             |
|           W    W    AA    RRRRR   N    N  II  N    N   GGGG   !!!           |
|           W    W   A  A   R    R  NN   N  II  NN   N  G    G  !!!           |
|           W    W  A    A  R    R  N N  N  II  N N  N  G       !!!           |
|           W WW W  AAAAAA  RRRRR   N  N N  II  N  N N  G  GGG   !            |
|           WW  WW  A    A  R   R   N   NN  II  N   NN  G    G                |
|           W    W  A    A  R    R  N    N  II  N    N   GGGG   !!!           |
|                                                                             |
|      For optimal performance we recommend to set                            |
|        NCORE= 4 - approx SQRT( number of cores)                             |
|      NCORE specifies how many cores store one orbital (NPAR=cpu/NCORE).     |
|      This setting can  greatly improve the performance of VASP for DFT.     |
|      The default,   NCORE=1            might be grossly inefficient         |
|      on modern multi-core architectures or massively parallel machines.     |
|      Do your own testing !!!!                                               |
|      Unfortunately you need to use the default for GW and RPA calculations. |
|      (for HF NCORE is supported but not extensively tested yet)             |
|                                                                             |
 ----------------------------------------------------------------------------- 

 LDA part: xc-table for Pade appr. of Perdew
 generate k-points for:    5    5    3
 found WAVECAR, reading the header
 POSCAR, INCAR and KPOINTS ok, starting setup
 FFT: planning ...
 reading WAVECAR
 the WAVECAR file was read successfully
 initial charge from wavefunction
 entering main loop
       N       E                     dE             d eps       ncg     rms          rms(c)
DAV:   1    -0.380899682976E+03   -0.38090E+03   -0.17224E-04  3032   0.331E-02    0.390E-02
DAV:   2    -0.380899641525E+03    0.41451E-04   -0.20306E-04  3803   0.214E-02
   1 F= -.38089964E+03 E0= -.38089964E+03  d E =0.000000E+00
 writing wavefunctions
