loading .bash_profile
"098_098"
"/usr/local/vasp/vasp.5.4.4.pl2_CentOS6_Intel-2018.5.274/bin/vasp"
* relax calc kpoints:50, in_plane:0.98, vertical:0.98
 running on   48 total cores
 distrk:  each k-point on   48 cores,    1 groups
 distr:  one band on   16 cores,    3 groups
 using from now: INCAR     
 vasp.5.4.4.18Apr17-6-g9f103f2a35 (build Feb 12 2021 11:32:40) complex          
  
 POSCAR found :  1 types and     107 ions
 scaLAPACK will be used

 ----------------------------------------------------------------------------- 
|                                                                             |
|           W    W    AA    RRRRR   N    N  II  N    N   GGGG   !!!           |
|           W    W   A  A   R    R  NN   N  II  NN   N  G    G  !!!           |
|           W    W  A    A  R    R  N N  N  II  N N  N  G       !!!           |
|           W WW W  AAAAAA  RRRRR   N  N N  II  N  N N  G  GGG   !            |
|           WW  WW  A    A  R   R   N   NN  II  N   NN  G    G                |
|           W    W  A    A  R    R  N    N  II  N    N   GGGG   !!!           |
|                                                                             |
|      For optimal performance we recommend to set                            |
|        NCORE= 4 - approx SQRT( number of cores)                             |
|      NCORE specifies how many cores store one orbital (NPAR=cpu/NCORE).     |
|      This setting can  greatly improve the performance of VASP for DFT.     |
|      The default,   NCORE=1            might be grossly inefficient         |
|      on modern multi-core architectures or massively parallel machines.     |
|      Do your own testing !!!!                                               |
|      Unfortunately you need to use the default for GW and RPA calculations. |
|      (for HF NCORE is supported but not extensively tested yet)             |
|                                                                             |
 ----------------------------------------------------------------------------- 

 LDA part: xc-table for Pade appr. of Perdew
 generate k-points for:    4    4    4
 POSCAR, INCAR and KPOINTS ok, starting setup
 FFT: planning ...
 WAVECAR not read
 WARNING: chargedensity file is incomplete
 WARNING: random wavefunctions but no delay for mixing, default for NELMDL
 entering main loop
       N       E                     dE             d eps       ncg     rms          rms(c)
DAV:   1     0.225991531691E+03    0.22599E+03   -0.69338E+04  4365   0.644E+02
DAV:   2    -0.364900992587E+03   -0.59089E+03   -0.55639E+03  5184   0.116E+02
DAV:   3    -0.399032193214E+03   -0.34131E+02   -0.32353E+02  5166   0.236E+01
DAV:   4    -0.399795981780E+03   -0.76379E+00   -0.75083E+00  5130   0.352E+00
DAV:   5    -0.399815934518E+03   -0.19953E-01   -0.19884E-01  5103   0.532E-01    0.100E+01
DAV:   6    -0.398029388171E+03    0.17865E+01   -0.11678E+00  4914   0.161E+00    0.620E+00
DAV:   7    -0.397118294825E+03    0.91109E+00   -0.67096E-01  4905   0.149E+00    0.226E+00
DAV:   8    -0.396924248544E+03    0.19405E+00   -0.27738E-01  4905   0.101E+00    0.311E-01
DAV:   9    -0.396921425773E+03    0.28228E-02   -0.38203E-02  4878   0.337E-01    0.157E-01
DAV:  10    -0.396921046673E+03    0.37910E-03   -0.42441E-03  5139   0.985E-02    0.655E-02
DAV:  11    -0.396921106477E+03   -0.59804E-04   -0.30813E-04  4149   0.290E-02
   1 F= -.39692111E+03 E0= -.39692093E+03  d E =-.396921E+03
 curvature:   0.00 expect dE= 0.000E+00 dE for cont linesearch  0.000E+00
 trial: gam= 0.00000 g(F)=  0.544E-01 g(S)=  0.000E+00 ort = 0.000E+00 (trialstep = 0.100E+01)
 search vector abs. value=  0.544E-01
 bond charge predicted
       N       E                     dE             d eps       ncg     rms          rms(c)
DAV:   1    -0.396968657635E+03   -0.47611E-01   -0.39203E-01  4752   0.997E-01    0.150E-01
DAV:   2    -0.396967313079E+03    0.13446E-02   -0.20057E-02  4959   0.248E-01    0.593E-02
DAV:   3    -0.396967142240E+03    0.17084E-03   -0.11619E-03  5076   0.608E-02    0.306E-02
DAV:   4    -0.396967124091E+03    0.18149E-04   -0.17465E-04  2988   0.238E-02
   2 F= -.39696712E+03 E0= -.39696669E+03  d E =-.460176E-01
 trial-energy change:   -0.046018  1 .order   -0.045923   -0.054368   -0.037478
 step:   3.2189(harm=  3.2189)  dis= 0.03309  next Energy=  -397.008608 (dE=-0.875E-01)
 bond charge predicted
       N       E                     dE             d eps       ncg     rms          rms(c)
DAV:   1    -0.397018148240E+03   -0.51006E-01   -0.19489E+00  4644   0.221E+00    0.334E-01
DAV:   2    -0.397011312642E+03    0.68356E-02   -0.10241E-01  4977   0.555E-01    0.133E-01
DAV:   3    -0.397010478027E+03    0.83461E-03   -0.59158E-03  5022   0.130E-01    0.657E-02
DAV:   4    -0.397010423824E+03    0.54203E-04   -0.80625E-04  5076   0.478E-02
   3 F= -.39701042E+03 E0= -.39701012E+03  d E =-.893173E-01
 curvature:  -1.61 expect dE=-0.110E-01 dE for cont linesearch -0.467E-04
 trial: gam= 0.10275 g(F)=  0.684E-02 g(S)=  0.000E+00 ort = 0.126E-02 (trialstep = 0.144E+01)
 search vector abs. value=  0.767E-02
 bond charge predicted
       N       E                     dE             d eps       ncg     rms          rms(c)
DAV:   1    -0.397019036622E+03   -0.85586E-02   -0.87322E-02  4617   0.535E-01    0.813E-02
DAV:   2    -0.397018785412E+03    0.25121E-03   -0.68076E-03  4644   0.161E-01    0.366E-02
DAV:   3    -0.397018711549E+03    0.73863E-04   -0.43025E-04  4347   0.441E-02
   4 F= -.39701871E+03 E0= -.39701842E+03  d E =-.828773E-02
 trial-energy change:   -0.008288  1 .order   -0.008113   -0.010065   -0.006161
 step:   3.7222(harm=  3.7222)  dis= 0.00941  next Energy=  -397.023399 (dE=-0.130E-01)
 bond charge predicted
       N       E                     dE             d eps       ncg     rms          rms(c)
DAV:   1    -0.397024342020E+03   -0.55566E-02   -0.21599E-01  4581   0.842E-01    0.125E-01
DAV:   2    -0.397023710243E+03    0.63178E-03   -0.17166E-02  4626   0.253E-01    0.544E-02
DAV:   3    -0.397023543978E+03    0.16627E-03   -0.10198E-03  5031   0.674E-02    0.318E-02
DAV:   4    -0.397023534346E+03    0.96317E-05   -0.19144E-04  2916   0.220E-02
   5 F= -.39702353E+03 E0= -.39702325E+03  d E =-.131105E-01
 curvature:  -2.05 expect dE=-0.224E-02 dE for cont linesearch -0.297E-05
 trial: gam= 0.18149 g(F)=  0.109E-02 g(S)=  0.000E+00 ort =-0.105E-03 (trialstep = 0.190E+01)
 search vector abs. value=  0.131E-02
 bond charge predicted
       N       E                     dE             d eps       ncg     rms          rms(c)
DAV:   1    -0.397024898417E+03   -0.13544E-02   -0.30242E-02  4617   0.305E-01    0.461E-02
DAV:   2    -0.397024810833E+03    0.87584E-04   -0.21964E-03  4680   0.926E-02    0.208E-02
DAV:   3    -0.397024778150E+03    0.32683E-04   -0.16280E-04  3222   0.268E-02
   6 F= -.39702478E+03 E0= -.39702453E+03  d E =-.124380E-02
 trial-energy change:   -0.001244  1 .order   -0.001254   -0.002037   -0.000471
 step:   2.4700(harm=  2.4700)  dis= 0.00264  next Energy=  -397.024859 (dE=-0.132E-02)
 reached required accuracy - stopping structural energy minimisation
 writing wavefunctions
* fix calc kpoints:50, in_plane:0.98, vertical:0.98
 running on   48 total cores
 distrk:  each k-point on   48 cores,    1 groups
 distr:  one band on   16 cores,    3 groups
 using from now: INCAR     
 vasp.5.4.4.18Apr17-6-g9f103f2a35 (build Feb 12 2021 11:32:40) complex          
  
 POSCAR found type information on POSCAR  Al
 POSCAR found :  1 types and     107 ions
 scaLAPACK will be used

 ----------------------------------------------------------------------------- 
|                                                                             |
|           W    W    AA    RRRRR   N    N  II  N    N   GGGG   !!!           |
|           W    W   A  A   R    R  NN   N  II  NN   N  G    G  !!!           |
|           W    W  A    A  R    R  N N  N  II  N N  N  G       !!!           |
|           W WW W  AAAAAA  RRRRR   N  N N  II  N  N N  G  GGG   !            |
|           WW  WW  A    A  R   R   N   NN  II  N   NN  G    G                |
|           W    W  A    A  R    R  N    N  II  N    N   GGGG   !!!           |
|                                                                             |
|      For optimal performance we recommend to set                            |
|        NCORE= 4 - approx SQRT( number of cores)                             |
|      NCORE specifies how many cores store one orbital (NPAR=cpu/NCORE).     |
|      This setting can  greatly improve the performance of VASP for DFT.     |
|      The default,   NCORE=1            might be grossly inefficient         |
|      on modern multi-core architectures or massively parallel machines.     |
|      Do your own testing !!!!                                               |
|      Unfortunately you need to use the default for GW and RPA calculations. |
|      (for HF NCORE is supported but not extensively tested yet)             |
|                                                                             |
 ----------------------------------------------------------------------------- 


 ----------------------------------------------------------------------------- 
|                                                                             |
|  ADVICE TO THIS USER RUNNING 'VASP/VAMP'   (HEAR YOUR MASTER'S VOICE ...):  |
|                                                                             |
|      You have a (more or less) 'large supercell' and for larger cells       |
|      it might be more efficient to use real space projection operators      |
|      So try LREAL= Auto  in the INCAR   file.                               |
|      Mind: If you want to do a very accurate calculations keep the          |
|      reciprocal projection scheme          (i.e. LREAL=.FALSE.)             |
|                                                                             |
 ----------------------------------------------------------------------------- 

 LDA part: xc-table for Pade appr. of Perdew
 generate k-points for:    4    4    4
 found WAVECAR, reading the header
 POSCAR, INCAR and KPOINTS ok, starting setup
 FFT: planning ...
 reading WAVECAR
 the WAVECAR file was read successfully
 initial charge from wavefunction
 entering main loop
       N       E                     dE             d eps       ncg     rms          rms(c)
DAV:   1    -0.397007376210E+03   -0.39701E+03   -0.24629E-04  3213   0.314E-02    0.778E-02
DAV:   2    -0.397006833752E+03    0.54246E-03   -0.26391E-03  4428   0.947E-02    0.417E-02
DAV:   3    -0.397006705467E+03    0.12829E-03   -0.58726E-04  4347   0.469E-02    0.222E-02
DAV:   4    -0.397006695114E+03    0.10353E-04   -0.12601E-04  2457   0.158E-02
   1 F= -.39700670E+03 E0= -.39698152E+03  d E =-.755175E-01
 writing wavefunctions
"100_100"
"/usr/local/vasp/vasp.5.4.4.pl2_CentOS6_Intel-2018.5.274/bin/vasp"
* relax calc kpoints:50, in_plane:1.00, vertical:1.00
 running on   48 total cores
 distrk:  each k-point on   48 cores,    1 groups
 distr:  one band on   16 cores,    3 groups
 using from now: INCAR     
 vasp.5.4.4.18Apr17-6-g9f103f2a35 (build Feb 12 2021 11:32:40) complex          
  
 POSCAR found :  1 types and     107 ions
 scaLAPACK will be used

 ----------------------------------------------------------------------------- 
|                                                                             |
|           W    W    AA    RRRRR   N    N  II  N    N   GGGG   !!!           |
|           W    W   A  A   R    R  NN   N  II  NN   N  G    G  !!!           |
|           W    W  A    A  R    R  N N  N  II  N N  N  G       !!!           |
|           W WW W  AAAAAA  RRRRR   N  N N  II  N  N N  G  GGG   !            |
|           WW  WW  A    A  R   R   N   NN  II  N   NN  G    G                |
|           W    W  A    A  R    R  N    N  II  N    N   GGGG   !!!           |
|                                                                             |
|      For optimal performance we recommend to set                            |
|        NCORE= 4 - approx SQRT( number of cores)                             |
|      NCORE specifies how many cores store one orbital (NPAR=cpu/NCORE).     |
|      This setting can  greatly improve the performance of VASP for DFT.     |
|      The default,   NCORE=1            might be grossly inefficient         |
|      on modern multi-core architectures or massively parallel machines.     |
|      Do your own testing !!!!                                               |
|      Unfortunately you need to use the default for GW and RPA calculations. |
|      (for HF NCORE is supported but not extensively tested yet)             |
|                                                                             |
 ----------------------------------------------------------------------------- 

 LDA part: xc-table for Pade appr. of Perdew
 generate k-points for:    4    4    4
 found WAVECAR, reading the header
 WAVECAR: different cutoff or change in lattice found
 POSCAR, INCAR and KPOINTS ok, starting setup
 FFT: planning ...
 reading WAVECAR
 the WAVECAR file was read successfully
 charge-density read from file: unknown                                 
 entering main loop
       N       E                     dE             d eps       ncg     rms          rms(c)
DAV:   1    -0.398748344340E+03   -0.39875E+03   -0.24297E+01  4527   0.923E+00    0.204E+00
DAV:   2    -0.398662518019E+03    0.85826E-01   -0.43769E-01  4842   0.118E+00    0.128E+00
DAV:   3    -0.398613354480E+03    0.49164E-01   -0.41323E-02  5139   0.360E-01    0.573E-01
DAV:   4    -0.398599738618E+03    0.13616E-01   -0.17863E-02  5022   0.233E-01    0.101E-01
DAV:   5    -0.398599116250E+03    0.62237E-03   -0.28814E-03  4941   0.955E-02    0.341E-02
DAV:   6    -0.398599069570E+03    0.46680E-04   -0.47954E-04  4914   0.311E-02
   1 F= -.39859907E+03 E0= -.39859916E+03  d E =-.398599E+03
 curvature:   0.00 expect dE= 0.000E+00 dE for cont linesearch  0.000E+00
 trial: gam= 0.00000 g(F)=  0.338E-01 g(S)=  0.000E+00 ort = 0.000E+00 (trialstep = 0.100E+01)
 search vector abs. value=  0.338E-01
 bond charge predicted
       N       E                     dE             d eps       ncg     rms          rms(c)
DAV:   1    -0.398629413396E+03   -0.30297E-01   -0.23725E-01  4698   0.769E-01    0.102E-01
DAV:   2    -0.398629032593E+03    0.38080E-03   -0.10710E-02  4959   0.184E-01    0.449E-02
DAV:   3    -0.398628926041E+03    0.10655E-03   -0.63601E-04  5094   0.409E-02    0.202E-02
DAV:   4    -0.398628918211E+03    0.78294E-05   -0.81767E-05  2583   0.170E-02
   2 F= -.39862892E+03 E0= -.39862908E+03  d E =-.298486E-01
 ZBRENT: can't locate minimum, use default step
 trial-energy change:   -0.029849  1 .order   -0.029684   -0.033815   -0.025553
 step:   4.0000(harm=  4.0927)  dis= 0.03184  next Energy=  -398.668266 (dE=-0.692E-01)
 bond charge predicted
       N       E                     dE             d eps       ncg     rms          rms(c)
DAV:   1    -0.398670301622E+03   -0.41376E-01   -0.21239E+00  4653   0.230E+00    0.304E-01
DAV:   2    -0.398667493553E+03    0.28081E-02   -0.99331E-02  4959   0.556E-01    0.133E-01
DAV:   3    -0.398666709136E+03    0.78442E-03   -0.53874E-03  5283   0.118E-01    0.621E-02
DAV:   4    -0.398666668218E+03    0.40918E-04   -0.72368E-04  5040   0.480E-02
   3 F= -.39866667E+03 E0= -.39866674E+03  d E =-.675986E-01
 curvature:  -2.04 expect dE=-0.820E-02 dE for cont linesearch -0.380E-04
 trial: gam= 0.14199 g(F)=  0.401E-02 g(S)=  0.000E+00 ort =-0.793E-03 (trialstep = 0.160E+01)
 search vector abs. value=  0.447E-02
 bond charge predicted
       N       E                     dE             d eps       ncg     rms          rms(c)
DAV:   1    -0.398672026211E+03   -0.53171E-02   -0.55825E-02  4626   0.431E-01    0.596E-02
DAV:   2    -0.398671978011E+03    0.48200E-04   -0.41384E-03  4635   0.124E-01    0.283E-02
DAV:   3    -0.398671941280E+03    0.36731E-04   -0.25366E-04  3789   0.341E-02
   4 F= -.39867194E+03 E0= -.39867206E+03  d E =-.527306E-02
 trial-energy change:   -0.005273  1 .order   -0.005280   -0.006234   -0.004326
 step:   5.2273(harm=  5.2273)  dis= 0.01151  next Energy=  -398.676851 (dE=-0.102E-01)
 bond charge predicted
       N       E                     dE             d eps       ncg     rms          rms(c)
DAV:   1    -0.398677321017E+03   -0.53430E-02   -0.28504E-01  4545   0.973E-01    0.130E-01
DAV:   2    -0.398677030485E+03    0.29053E-03   -0.21634E-02  4626   0.282E-01    0.598E-02
DAV:   3    -0.398676832917E+03    0.19757E-03   -0.13158E-03  4968   0.773E-02    0.362E-02
DAV:   4    -0.398676832846E+03    0.70970E-07   -0.19355E-04  3051   0.230E-02
   5 F= -.39867683E+03 E0= -.39867714E+03  d E =-.101646E-01
 curvature:  -3.00 expect dE=-0.126E-02 dE for cont linesearch -0.711E-06
 trial: gam= 0.03431 g(F)=  0.421E-03 g(S)=  0.000E+00 ort = 0.326E-04 (trialstep = 0.233E+01)
 search vector abs. value=  0.428E-03
 reached required accuracy - stopping structural energy minimisation
 writing wavefunctions
* fix calc kpoints:50, in_plane:1.00, vertical:1.00
 running on   48 total cores
 distrk:  each k-point on   48 cores,    1 groups
 distr:  one band on   16 cores,    3 groups
 using from now: INCAR     
 vasp.5.4.4.18Apr17-6-g9f103f2a35 (build Feb 12 2021 11:32:40) complex          
  
 POSCAR found type information on POSCAR  Al
 POSCAR found :  1 types and     107 ions
 scaLAPACK will be used

 ----------------------------------------------------------------------------- 
|                                                                             |
|           W    W    AA    RRRRR   N    N  II  N    N   GGGG   !!!           |
|           W    W   A  A   R    R  NN   N  II  NN   N  G    G  !!!           |
|           W    W  A    A  R    R  N N  N  II  N N  N  G       !!!           |
|           W WW W  AAAAAA  RRRRR   N  N N  II  N  N N  G  GGG   !            |
|           WW  WW  A    A  R   R   N   NN  II  N   NN  G    G                |
|           W    W  A    A  R    R  N    N  II  N    N   GGGG   !!!           |
|                                                                             |
|      For optimal performance we recommend to set                            |
|        NCORE= 4 - approx SQRT( number of cores)                             |
|      NCORE specifies how many cores store one orbital (NPAR=cpu/NCORE).     |
|      This setting can  greatly improve the performance of VASP for DFT.     |
|      The default,   NCORE=1            might be grossly inefficient         |
|      on modern multi-core architectures or massively parallel machines.     |
|      Do your own testing !!!!                                               |
|      Unfortunately you need to use the default for GW and RPA calculations. |
|      (for HF NCORE is supported but not extensively tested yet)             |
|                                                                             |
 ----------------------------------------------------------------------------- 


 ----------------------------------------------------------------------------- 
|                                                                             |
|  ADVICE TO THIS USER RUNNING 'VASP/VAMP'   (HEAR YOUR MASTER'S VOICE ...):  |
|                                                                             |
|      You have a (more or less) 'large supercell' and for larger cells       |
|      it might be more efficient to use real space projection operators      |
|      So try LREAL= Auto  in the INCAR   file.                               |
|      Mind: If you want to do a very accurate calculations keep the          |
|      reciprocal projection scheme          (i.e. LREAL=.FALSE.)             |
|                                                                             |
 ----------------------------------------------------------------------------- 

 LDA part: xc-table for Pade appr. of Perdew
 generate k-points for:    4    4    4
 found WAVECAR, reading the header
 POSCAR, INCAR and KPOINTS ok, starting setup
 FFT: planning ...
 reading WAVECAR
 the WAVECAR file was read successfully
 initial charge from wavefunction
 entering main loop
       N       E                     dE             d eps       ncg     rms          rms(c)
DAV:   1    -0.398684463830E+03   -0.39868E+03   -0.14097E-04  2511   0.276E-02    0.996E-02
DAV:   2    -0.398683582744E+03    0.88109E-03   -0.42650E-03  4293   0.114E-01    0.513E-02
DAV:   3    -0.398683407712E+03    0.17503E-03   -0.84579E-04  4455   0.547E-02    0.290E-02
DAV:   4    -0.398683382021E+03    0.25691E-04   -0.16548E-04  2700   0.189E-02
   1 F= -.39868338E+03 E0= -.39865260E+03  d E =-.923515E-01
 writing wavefunctions
"102_102"
"/usr/local/vasp/vasp.5.4.4.pl2_CentOS6_Intel-2018.5.274/bin/vasp"
* relax calc kpoints:50, in_plane:1.02, vertical:1.02
 running on   48 total cores
 distrk:  each k-point on   48 cores,    1 groups
 distr:  one band on   16 cores,    3 groups
 using from now: INCAR     
 vasp.5.4.4.18Apr17-6-g9f103f2a35 (build Feb 12 2021 11:32:40) complex          
  
 POSCAR found :  1 types and     107 ions
 scaLAPACK will be used

 ----------------------------------------------------------------------------- 
|                                                                             |
|           W    W    AA    RRRRR   N    N  II  N    N   GGGG   !!!           |
|           W    W   A  A   R    R  NN   N  II  NN   N  G    G  !!!           |
|           W    W  A    A  R    R  N N  N  II  N N  N  G       !!!           |
|           W WW W  AAAAAA  RRRRR   N  N N  II  N  N N  G  GGG   !            |
|           WW  WW  A    A  R   R   N   NN  II  N   NN  G    G                |
|           W    W  A    A  R    R  N    N  II  N    N   GGGG   !!!           |
|                                                                             |
|      For optimal performance we recommend to set                            |
|        NCORE= 4 - approx SQRT( number of cores)                             |
|      NCORE specifies how many cores store one orbital (NPAR=cpu/NCORE).     |
|      This setting can  greatly improve the performance of VASP for DFT.     |
|      The default,   NCORE=1            might be grossly inefficient         |
|      on modern multi-core architectures or massively parallel machines.     |
|      Do your own testing !!!!                                               |
|      Unfortunately you need to use the default for GW and RPA calculations. |
|      (for HF NCORE is supported but not extensively tested yet)             |
|                                                                             |
 ----------------------------------------------------------------------------- 

 LDA part: xc-table for Pade appr. of Perdew
 generate k-points for:    4    4    4
 found WAVECAR, reading the header
 WAVECAR: different cutoff or change in lattice found
 POSCAR, INCAR and KPOINTS ok, starting setup
 FFT: planning ...
 reading WAVECAR
 the WAVECAR file was read successfully
 charge-density read from file: unknown                                 
 entering main loop
       N       E                     dE             d eps       ncg     rms          rms(c)
DAV:   1    -0.397436323910E+03   -0.39744E+03   -0.23792E+01  4563   0.881E+00    0.211E+00
DAV:   2    -0.397350731972E+03    0.85592E-01   -0.40126E-01  4869   0.113E+00    0.132E+00
DAV:   3    -0.397295548248E+03    0.55184E-01   -0.46435E-02  5085   0.364E-01    0.517E-01
DAV:   4    -0.397283698140E+03    0.11850E-01   -0.18459E-02  5031   0.236E-01    0.808E-02
DAV:   5    -0.397283298819E+03    0.39932E-03   -0.30313E-03  4914   0.954E-02    0.353E-02
DAV:   6    -0.397283245729E+03    0.53090E-04   -0.48196E-04  4995   0.313E-02
   1 F= -.39728325E+03 E0= -.39728313E+03  d E =-.397283E+03
 curvature:   0.00 expect dE= 0.000E+00 dE for cont linesearch  0.000E+00
 trial: gam= 0.00000 g(F)=  0.178E-01 g(S)=  0.000E+00 ort = 0.000E+00 (trialstep = 0.100E+01)
 search vector abs. value=  0.178E-01
 bond charge predicted
       N       E                     dE             d eps       ncg     rms          rms(c)
DAV:   1    -0.397299567513E+03   -0.16269E-01   -0.11702E-01  4725   0.538E-01    0.674E-02
DAV:   2    -0.397299449130E+03    0.11838E-03   -0.50474E-03  4959   0.126E-01    0.305E-02
DAV:   3    -0.397299399448E+03    0.49682E-04   -0.29247E-04  4509   0.294E-02
   2 F= -.39729940E+03 E0= -.39729937E+03  d E =-.161537E-01
 ZBRENT: can't locate minimum, use default step
 trial-energy change:   -0.016154  1 .order   -0.016094   -0.017778   -0.014410
 step:   4.0000(harm=  5.2784)  dis= 0.02298  next Energy=  -397.330165 (dE=-0.469E-01)
 bond charge predicted
       N       E                     dE             d eps       ncg     rms          rms(c)
DAV:   1    -0.397327869415E+03   -0.28420E-01   -0.10426E+00  4689   0.160E+00    0.196E-01
DAV:   2    -0.397327570515E+03    0.29890E-03   -0.44257E-02  4932   0.370E-01    0.916E-02
DAV:   3    -0.397327229121E+03    0.34139E-03   -0.24102E-03  5238   0.813E-02    0.467E-02
DAV:   4    -0.397327204928E+03    0.24193E-04   -0.41654E-04  4662   0.349E-02
   3 F= -.39732720E+03 E0= -.39732725E+03  d E =-.439592E-01
 curvature:  -2.40 expect dE=-0.575E-02 dE for cont linesearch -0.196E-02
 ZBRENT: extrapolating
 opt :   5.0785  next Energy=  -397.329260 (dE=-0.460E-01)
 bond charge predicted
       N       E                     dE             d eps       ncg     rms          rms(c)
DAV:   1    -0.397329250242E+03   -0.20211E-02   -0.13677E-01  4725   0.580E-01    0.756E-02
DAV:   2    -0.397329227149E+03    0.23093E-04   -0.58316E-03  4941   0.135E-01    0.367E-02
DAV:   3    -0.397329184742E+03    0.42406E-04   -0.32087E-04  4644   0.300E-02
   4 F= -.39732918E+03 E0= -.39732921E+03  d E =-.459390E-01
 curvature:  -2.52 expect dE=-0.625E-02 dE for cont linesearch -0.778E-06
 trial: gam= 0.14384 g(F)=  0.248E-02 g(S)=  0.000E+00 ort =-0.742E-04 (trialstep = 0.182E+01)
 search vector abs. value=  0.283E-02
 bond charge predicted
       N       E                     dE             d eps       ncg     rms          rms(c)
DAV:   1    -0.397332762149E+03   -0.35350E-02   -0.43054E-02  4590   0.377E-01    0.486E-02
DAV:   2    -0.397332776238E+03   -0.14089E-04   -0.30423E-03  4581   0.104E-01    0.230E-02
DAV:   3    -0.397332754110E+03    0.22127E-04   -0.16060E-04  3501   0.271E-02
   5 F= -.39733275E+03 E0= -.39733278E+03  d E =-.356937E-02
 trial-energy change:   -0.003569  1 .order   -0.003630   -0.004489   -0.002770
 step:   4.7427(harm=  4.7427)  dis= 0.00773  next Energy=  -397.335047 (dE=-0.586E-02)
 bond charge predicted
       N       E                     dE             d eps       ncg     rms          rms(c)
DAV:   1    -0.397335707579E+03   -0.29313E-02   -0.11259E-01  4581   0.612E-01    0.778E-02
DAV:   2    -0.397335747035E+03   -0.39456E-04   -0.82578E-03  4617   0.171E-01    0.369E-02
DAV:   3    -0.397335684191E+03    0.62844E-04   -0.47628E-04  4437   0.455E-02
   6 F= -.39733568E+03 E0= -.39733572E+03  d E =-.649945E-02
 curvature:  -2.71 expect dE=-0.498E-03 dE for cont linesearch -0.163E-03
 trial: gam=-0.11771 g(F)=  0.183E-03 g(S)=  0.000E+00 ort = 0.412E-03 (trialstep = 0.240E+01)
 search vector abs. value=  0.125E-03
 reached required accuracy - stopping structural energy minimisation
 writing wavefunctions
* fix calc kpoints:50, in_plane:1.02, vertical:1.02
 running on   48 total cores
 distrk:  each k-point on   48 cores,    1 groups
 distr:  one band on   16 cores,    3 groups
 using from now: INCAR     
 vasp.5.4.4.18Apr17-6-g9f103f2a35 (build Feb 12 2021 11:32:40) complex          
  
 POSCAR found type information on POSCAR  Al
 POSCAR found :  1 types and     107 ions
 scaLAPACK will be used

 ----------------------------------------------------------------------------- 
|                                                                             |
|           W    W    AA    RRRRR   N    N  II  N    N   GGGG   !!!           |
|           W    W   A  A   R    R  NN   N  II  NN   N  G    G  !!!           |
|           W    W  A    A  R    R  N N  N  II  N N  N  G       !!!           |
|           W WW W  AAAAAA  RRRRR   N  N N  II  N  N N  G  GGG   !            |
|           WW  WW  A    A  R   R   N   NN  II  N   NN  G    G                |
|           W    W  A    A  R    R  N    N  II  N    N   GGGG   !!!           |
|                                                                             |
|      For optimal performance we recommend to set                            |
|        NCORE= 4 - approx SQRT( number of cores)                             |
|      NCORE specifies how many cores store one orbital (NPAR=cpu/NCORE).     |
|      This setting can  greatly improve the performance of VASP for DFT.     |
|      The default,   NCORE=1            might be grossly inefficient         |
|      on modern multi-core architectures or massively parallel machines.     |
|      Do your own testing !!!!                                               |
|      Unfortunately you need to use the default for GW and RPA calculations. |
|      (for HF NCORE is supported but not extensively tested yet)             |
|                                                                             |
 ----------------------------------------------------------------------------- 


 ----------------------------------------------------------------------------- 
|                                                                             |
|  ADVICE TO THIS USER RUNNING 'VASP/VAMP'   (HEAR YOUR MASTER'S VOICE ...):  |
|                                                                             |
|      You have a (more or less) 'large supercell' and for larger cells       |
|      it might be more efficient to use real space projection operators      |
|      So try LREAL= Auto  in the INCAR   file.                               |
|      Mind: If you want to do a very accurate calculations keep the          |
|      reciprocal projection scheme          (i.e. LREAL=.FALSE.)             |
|                                                                             |
 ----------------------------------------------------------------------------- 

 LDA part: xc-table for Pade appr. of Perdew
 generate k-points for:    4    4    4
 found WAVECAR, reading the header
 POSCAR, INCAR and KPOINTS ok, starting setup
 FFT: planning ...
 reading WAVECAR
 the WAVECAR file was read successfully
 initial charge from wavefunction
 entering main loop
       N       E                     dE             d eps       ncg     rms          rms(c)
DAV:   1    -0.397289093667E+03   -0.39729E+03   -0.56172E-04  4041   0.486E-02    0.109E-01
DAV:   2    -0.397288333399E+03    0.76027E-03   -0.59265E-03  4185   0.141E-01    0.680E-02
DAV:   3    -0.397287962757E+03    0.37064E-03   -0.12207E-03  4212   0.688E-02    0.392E-02
DAV:   4    -0.397287933199E+03    0.29559E-04   -0.30911E-04  3762   0.235E-02
   1 F= -.39728793E+03 E0= -.39725894E+03  d E =-.869848E-01
 writing wavefunctions
"104_104"
"/usr/local/vasp/vasp.5.4.4.pl2_CentOS6_Intel-2018.5.274/bin/vasp"
* relax calc kpoints:50, in_plane:1.04, vertical:1.04
 running on   48 total cores
 distrk:  each k-point on   48 cores,    1 groups
 distr:  one band on   16 cores,    3 groups
 using from now: INCAR     
 vasp.5.4.4.18Apr17-6-g9f103f2a35 (build Feb 12 2021 11:32:40) complex          
  
 POSCAR found :  1 types and     107 ions
 scaLAPACK will be used

 ----------------------------------------------------------------------------- 
|                                                                             |
|           W    W    AA    RRRRR   N    N  II  N    N   GGGG   !!!           |
|           W    W   A  A   R    R  NN   N  II  NN   N  G    G  !!!           |
|           W    W  A    A  R    R  N N  N  II  N N  N  G       !!!           |
|           W WW W  AAAAAA  RRRRR   N  N N  II  N  N N  G  GGG   !            |
|           WW  WW  A    A  R   R   N   NN  II  N   NN  G    G                |
|           W    W  A    A  R    R  N    N  II  N    N   GGGG   !!!           |
|                                                                             |
|      For optimal performance we recommend to set                            |
|        NCORE= 4 - approx SQRT( number of cores)                             |
|      NCORE specifies how many cores store one orbital (NPAR=cpu/NCORE).     |
|      This setting can  greatly improve the performance of VASP for DFT.     |
|      The default,   NCORE=1            might be grossly inefficient         |
|      on modern multi-core architectures or massively parallel machines.     |
|      Do your own testing !!!!                                               |
|      Unfortunately you need to use the default for GW and RPA calculations. |
|      (for HF NCORE is supported but not extensively tested yet)             |
|                                                                             |
 ----------------------------------------------------------------------------- 

 LDA part: xc-table for Pade appr. of Perdew
 generate k-points for:    4    4    4
 found WAVECAR, reading the header
 WAVECAR: different cutoff or change in lattice found
 POSCAR, INCAR and KPOINTS ok, starting setup
 FFT: planning ...
 reading WAVECAR
 the WAVECAR file was read successfully
 charge-density read from file: unknown                                 
 entering main loop
       N       E                     dE             d eps       ncg     rms          rms(c)
DAV:   1    -0.393661202809E+03   -0.39366E+03   -0.22513E+01  4563   0.840E+00    0.213E+00
DAV:   2    -0.393574451025E+03    0.86752E-01   -0.34829E-01  4869   0.103E+00    0.133E+00
DAV:   3    -0.393506420273E+03    0.68031E-01   -0.52722E-02  5067   0.337E-01    0.236E-01
DAV:   4    -0.393503214400E+03    0.32059E-02   -0.90152E-03  4914   0.172E-01    0.634E-02
DAV:   5    -0.393502958819E+03    0.25558E-03   -0.17157E-03  5211   0.670E-02    0.286E-02
DAV:   6    -0.393502922386E+03    0.36433E-04   -0.17991E-04  3096   0.205E-02
   1 F= -.39350292E+03 E0= -.39350305E+03  d E =-.393503E+03
 curvature:   0.00 expect dE= 0.000E+00 dE for cont linesearch  0.000E+00
 trial: gam= 0.00000 g(F)=  0.874E-02 g(S)=  0.000E+00 ort = 0.000E+00 (trialstep = 0.100E+01)
 search vector abs. value=  0.874E-02
 bond charge predicted
       N       E                     dE             d eps       ncg     rms          rms(c)
DAV:   1    -0.393510992725E+03   -0.80339E-02   -0.53734E-02  4797   0.367E-01    0.387E-02
DAV:   2    -0.393511045445E+03   -0.52720E-04   -0.21414E-03  4950   0.819E-02    0.193E-02
DAV:   3    -0.393511025932E+03    0.19513E-04   -0.92524E-05  3060   0.165E-02
   2 F= -.39351103E+03 E0= -.39351109E+03  d E =-.810355E-02
 ZBRENT: can't locate minimum, use default step
 trial-energy change:   -0.008104  1 .order   -0.008134   -0.008739   -0.007529
 step:   4.0000(harm=  7.2217)  dis= 0.01558  next Energy=  -393.534479 (dE=-0.316E-01)
 bond charge predicted
       N       E                     dE             d eps       ncg     rms          rms(c)
DAV:   1    -0.393527123639E+03   -0.16078E-01   -0.48046E-01  4680   0.109E+00    0.122E-01
DAV:   2    -0.393527490522E+03   -0.36688E-03   -0.19780E-02  5004   0.248E-01    0.599E-02
DAV:   3    -0.393527360259E+03    0.13026E-03   -0.10113E-03  5220   0.536E-02    0.327E-02
DAV:   4    -0.393527344824E+03    0.15436E-04   -0.20158E-04  3204   0.243E-02
   3 F= -.39352734E+03 E0= -.39352735E+03  d E =-.244224E-01
 curvature:  -2.64 expect dE=-0.461E-02 dE for cont linesearch -0.322E-02
 ZBRENT: increasing intervall
 opt :  10.0000  next Energy=  -393.521346 (dE=-0.184E-01)
 bond charge predicted
       N       E                     dE             d eps       ncg     rms          rms(c)
DAV:   1    -0.393523522854E+03    0.38374E-02   -0.19599E+00  4689   0.219E+00    0.252E-01
DAV:   2    -0.393524360717E+03   -0.83786E-03   -0.83535E-02  4959   0.508E-01    0.121E-01
DAV:   3    -0.393523828887E+03    0.53183E-03   -0.45116E-03  5184   0.114E-01    0.669E-02
DAV:   4    -0.393523771373E+03    0.57514E-04   -0.95847E-04  5139   0.497E-02
   4 F= -.39352377E+03 E0= -.39352375E+03  d E =-.208490E-01
 curvature:   4.92 expect dE= 0.258E-01 dE for cont linesearch  0.118E-01
 ZBRENT: bracketing found
 ZBRENT: interpolating
 opt :   6.4984  next Energy=  -393.531423 (dE=-0.285E-01)
 bond charge predicted
       N       E                     dE             d eps       ncg     rms          rms(c)
DAV:   1    -0.393531547232E+03   -0.77183E-02   -0.66477E-01  4680   0.128E+00    0.136E-01
DAV:   2    -0.393531909521E+03   -0.36229E-03   -0.28517E-02  4914   0.299E-01    0.640E-02
DAV:   3    -0.393531685295E+03    0.22423E-03   -0.15533E-03  5166   0.682E-02    0.345E-02
DAV:   4    -0.393531647910E+03    0.37385E-04   -0.37517E-04  4491   0.302E-02
   5 F= -.39353165E+03 E0= -.39353162E+03  d E =-.287255E-01
 curvature:  -1.70 expect dE=-0.219E-02 dE for cont linesearch -0.121E-09
 trial: gam= 0.14730 g(F)=  0.129E-02 g(S)=  0.000E+00 ort =-0.789E-06 (trialstep = 0.210E+01)
 search vector abs. value=  0.148E-02
 bond charge predicted
       N       E                     dE             d eps       ncg     rms          rms(c)
DAV:   1    -0.393534009378E+03   -0.23241E-02   -0.27945E-02  4545   0.306E-01    0.318E-02
DAV:   2    -0.393534060674E+03   -0.51295E-04   -0.18085E-03  4680   0.794E-02    0.162E-02
DAV:   3    -0.393534042834E+03    0.17839E-04   -0.92142E-05  3105   0.211E-02
   6 F= -.39353404E+03 E0= -.39353401E+03  d E =-.239492E-02
 ZBRENT: can't locate minimum, use default step
 trial-energy change:   -0.002395  1 .order   -0.002386   -0.002701   -0.002071
 step:   8.3988(harm=  9.0028)  dis= 0.01091  next Energy=  -393.537439 (dE=-0.579E-02)
 bond charge predicted
       N       E                     dE             d eps       ncg     rms          rms(c)
DAV:   1    -0.393536536980E+03   -0.24763E-02   -0.25182E-01  4536   0.917E-01    0.103E-01
DAV:   2    -0.393536996738E+03   -0.45976E-03   -0.16400E-02  4662   0.239E-01    0.532E-02
DAV:   3    -0.393536845370E+03    0.15137E-03   -0.99446E-04  5130   0.642E-02    0.328E-02
DAV:   4    -0.393536848571E+03   -0.32002E-05   -0.15472E-04  2853   0.204E-02
   7 F= -.39353685E+03 E0= -.39353680E+03  d E =-.520066E-02
 curvature:  -5.13 expect dE=-0.556E-03 dE for cont linesearch -0.372E-04
 trial: gam= 0.15395 g(F)=  0.108E-03 g(S)=  0.000E+00 ort =-0.104E-03 (trialstep = 0.336E+01)
 search vector abs. value=  0.112E-03
 reached required accuracy - stopping structural energy minimisation
 writing wavefunctions
* fix calc kpoints:50, in_plane:1.04, vertical:1.04
 running on   48 total cores
 distrk:  each k-point on   48 cores,    1 groups
 distr:  one band on   16 cores,    3 groups
 using from now: INCAR     
 vasp.5.4.4.18Apr17-6-g9f103f2a35 (build Feb 12 2021 11:32:40) complex          
  
 POSCAR found type information on POSCAR  Al
 POSCAR found :  1 types and     107 ions
 scaLAPACK will be used

 ----------------------------------------------------------------------------- 
|                                                                             |
|           W    W    AA    RRRRR   N    N  II  N    N   GGGG   !!!           |
|           W    W   A  A   R    R  NN   N  II  NN   N  G    G  !!!           |
|           W    W  A    A  R    R  N N  N  II  N N  N  G       !!!           |
|           W WW W  AAAAAA  RRRRR   N  N N  II  N  N N  G  GGG   !            |
|           WW  WW  A    A  R   R   N   NN  II  N   NN  G    G                |
|           W    W  A    A  R    R  N    N  II  N    N   GGGG   !!!           |
|                                                                             |
|      For optimal performance we recommend to set                            |
|        NCORE= 4 - approx SQRT( number of cores)                             |
|      NCORE specifies how many cores store one orbital (NPAR=cpu/NCORE).     |
|      This setting can  greatly improve the performance of VASP for DFT.     |
|      The default,   NCORE=1            might be grossly inefficient         |
|      on modern multi-core architectures or massively parallel machines.     |
|      Do your own testing !!!!                                               |
|      Unfortunately you need to use the default for GW and RPA calculations. |
|      (for HF NCORE is supported but not extensively tested yet)             |
|                                                                             |
 ----------------------------------------------------------------------------- 


 ----------------------------------------------------------------------------- 
|                                                                             |
|  ADVICE TO THIS USER RUNNING 'VASP/VAMP'   (HEAR YOUR MASTER'S VOICE ...):  |
|                                                                             |
|      You have a (more or less) 'large supercell' and for larger cells       |
|      it might be more efficient to use real space projection operators      |
|      So try LREAL= Auto  in the INCAR   file.                               |
|      Mind: If you want to do a very accurate calculations keep the          |
|      reciprocal projection scheme          (i.e. LREAL=.FALSE.)             |
|                                                                             |
 ----------------------------------------------------------------------------- 

 LDA part: xc-table for Pade appr. of Perdew
 generate k-points for:    4    4    4
 found WAVECAR, reading the header
 POSCAR, INCAR and KPOINTS ok, starting setup
 FFT: planning ...
 reading WAVECAR
 the WAVECAR file was read successfully
 initial charge from wavefunction
 entering main loop
       N       E                     dE             d eps       ncg     rms          rms(c)
DAV:   1    -0.393466616333E+03   -0.39347E+03   -0.14044E-04  2646   0.289E-02    0.783E-02
DAV:   2    -0.393466021069E+03    0.59526E-03   -0.45707E-03  4383   0.119E-01    0.469E-02
DAV:   3    -0.393465749158E+03    0.27191E-03   -0.11342E-03  4509   0.607E-02    0.188E-02
DAV:   4    -0.393465748042E+03    0.11161E-05   -0.22322E-04  3051   0.194E-02
   1 F= -.39346575E+03 E0= -.39344509E+03  d E =-.619848E-01
 writing wavefunctions
